<event>
 4    1  0.1750553E+006  0.4141888E+01  0.7546771E-02  0.2250966E+00
         22   -1    0    0    0    0  0.00000000000E+00  0.00000000000E+00  0.86079590203E+01  0.86079590203E+01  0.00000000000E+00 0. -1.
         22   -1    0    0    0    0 -0.00000000000E+00 -0.00000000000E+00 -0.56220619618E+01  0.56220619618E+01  0.00000000000E+00 0.  1.
          4    1    1    2  501    0  0.46311811223E+00 -0.39150813202E+01  0.72094175904E+01  0.83145019167E+01  0.12700000000E+01 0. -1.
         -4    1    1    2    0  501 -0.46311811223E+00  0.39150813202E+01 -0.42235205319E+01  0.59155190654E+01  0.12700000000E+01 0.  1.
<mgrwt>
<rscale>  0 0.41418885E+01</rscale>
<asrwt>0</asrwt>
<pdfrwt beam="1">0</pdfrwt>
<pdfrwt beam="2">0</pdfrwt>
<totfact> 0.25534739E+11</totfact>
</mgrwt>
</event>
<event>
 4    1  0.1750553E+006  0.2095851E+01  0.7546771E-02  0.2918900E+00
         22   -1    0    0    0    0  0.00000000000E+00  0.00000000000E+00  0.98290879530E+01  0.98290879530E+01  0.00000000000E+00 0. -1.
         22   -1    0    0    0    0 -0.00000000000E+00 -0.00000000000E+00 -0.46775018691E+00  0.46775018691E+00  0.00000000000E+00 0. -1.
          4    1    1    2  501    0  0.12439911635E+01  0.11100354369E+01  0.57677205635E+01  0.61367086606E+01  0.12700000000E+01 0. -1.
         -4    1    1    2    0  501 -0.12439911635E+01 -0.11100354369E+01  0.35936172025E+01  0.41601294793E+01  0.12700000000E+01 0. -1.
<mgrwt>
<rscale>  0 0.20958513E+01</rscale>
<asrwt>0</asrwt>
<pdfrwt beam="1">0</pdfrwt>
<pdfrwt beam="2">0</pdfrwt>
<totfact> 0.38373042E+12</totfact>
</mgrwt>
</event>
<event>
 4    1  0.1750553E+006  0.3396696E+01  0.7546771E-02  0.2409963E+00
         22   -1    0    0    0    0  0.00000000000E+00  0.00000000000E+00  0.67406140629E+01  0.67406140629E+01  0.00000000000E+00 0. -1.
         22   -1    0    0    0    0 -0.00000000000E+00 -0.00000000000E+00 -0.34687741366E+01  0.34687741366E+01  0.00000000000E+00 0.  1.
          4    1    1    2  501    0  0.30671407892E+01 -0.71922767150E+00  0.52690714066E+01  0.62690234130E+01  0.12700000000E+01 0. -1.
         -4    1    1    2    0  501 -0.30671407892E+01  0.71922767150E+00 -0.19972314804E+01  0.39403647865E+01  0.12700000000E+01 0.  1.
<mgrwt>
<rscale>  0 0.33966956E+01</rscale>
<asrwt>0</asrwt>
<pdfrwt beam="1">0</pdfrwt>
<pdfrwt beam="2">0</pdfrwt>
<totfact> 0.60532139E+11</totfact>
</mgrwt>
</event>
<event>
 4    1  0.1750553E+006  0.2451501E+01  0.7546771E-02  0.2730306E+00
         22   -1    0    0    0    0  0.00000000000E+00  0.00000000000E+00  0.99714556219E+02  0.99714556219E+02  0.00000000000E+00 0. -1.
         22   -1    0    0    0    0 -0.00000000000E+00 -0.00000000000E+00 -0.64921093796E-01  0.64921093796E-01  0.00000000000E+00 0. -1.
          4    1    1    2  501    0 -0.20136849876E+01  0.58483352240E+00  0.36472175135E+02  0.36554471909E+02  0.12700000000E+01 0. -1.
         -4    1    1    2    0  501  0.20136849876E+01 -0.58483352240E+00  0.63177459990E+02  0.63225005403E+02  0.12700000000E+01 0. -1.
<mgrwt>
<rscale>  0 0.24515011E+01</rscale>
<asrwt>0</asrwt>
<pdfrwt beam="1">0</pdfrwt>
<pdfrwt beam="2">0</pdfrwt>
<totfact> 0.17538412E+12</totfact>
</mgrwt>
</event>
<event>
 4    1  0.1750553E+006  0.3473243E+01  0.7546771E-02  0.2390928E+00
         22   -1    0    0    0    0  0.00000000000E+00  0.00000000000E+00  0.32852305988E+02  0.32852305988E+02  0.00000000000E+00 0.  1.
         22   -1    0    0    0    0 -0.00000000000E+00 -0.00000000000E+00 -0.36790436927E+00  0.36790436927E+00  0.00000000000E+00 0. -1.
          4    1    1    2  501    0  0.21151752845E+01  0.24446988445E+01  0.16968164727E+02  0.17319989409E+02  0.12700000000E+01 0.  1.
         -4    1    1    2    0  501 -0.21151752845E+01 -0.24446988445E+01  0.15516236892E+02  0.15900220948E+02  0.12700000000E+01 0. -1.
<mgrwt>
<rscale>  0 0.34732433E+01</rscale>
<asrwt>0</asrwt>
<pdfrwt beam="1">0</pdfrwt>
<pdfrwt beam="2">0</pdfrwt>
<totfact> 0.11232160E+12</totfact>
</mgrwt>
</event>
<event>
 4    1  0.1750553E+006  0.2063615E+01  0.7546771E-02  0.2939069E+00
         22   -1    0    0    0    0  0.00000000000E+00  0.00000000000E+00  0.24661957076E+01  0.24661957076E+01  0.00000000000E+00 0. -1.
         22   -1    0    0    0    0 -0.00000000000E+00 -0.00000000000E+00 -0.18247179201E+01  0.18247179201E+01  0.00000000000E+00 0.  1.
          4    1    1    2  501    0 -0.13555790639E+01 -0.89889448949E+00 -0.17638156646E+00  0.20711389038E+01  0.12700000000E+01 0.  1.
         -4    1    1    2    0  501  0.13555790639E+01  0.89889448949E+00  0.81785935403E+00  0.22197747239E+01  0.12700000000E+01 0. -1.
<mgrwt>
<rscale>  0 0.20636148E+01</rscale>
<asrwt>0</asrwt>
<pdfrwt beam="1">0</pdfrwt>
<pdfrwt beam="2">0</pdfrwt>
<totfact> 0.41769321E+12</totfact>
</mgrwt>
</event>
<event>
 4    1  0.1750553E+006  0.2355276E+01  0.7546771E-02  0.2775990E+00
         22   -1    0    0    0    0  0.00000000000E+00  0.00000000000E+00  0.51373104200E+00  0.51373104200E+00  0.00000000000E+00 0.  1.
         22   -1    0    0    0    0 -0.00000000000E+00 -0.00000000000E+00 -0.11193564286E+02  0.11193564286E+02  0.00000000000E+00 0.  1.
          4    1    1    2  501    0  0.96971668582E+00 -0.17303400470E+01 -0.42396764422E+01  0.48499673673E+01  0.12700000000E+01 0.  1.
         -4    1    1    2    0  501 -0.96971668582E+00  0.17303400470E+01 -0.64401568017E+01  0.68573279606E+01  0.12700000000E+01 0.  1.
<mgrwt>
<rscale>  0 0.23552764E+01</rscale>
<asrwt>0</asrwt>
<pdfrwt beam="1">0</pdfrwt>
<pdfrwt beam="2">0</pdfrwt>
<totfact> 0.29484467E+12</totfact>
</mgrwt>
</event>
<event>
 4    1  0.1750553E+006  0.2095069E+01  0.7546771E-02  0.2919382E+00
         22   -1    0    0    0    0  0.00000000000E+00  0.00000000000E+00  0.40941956573E+02  0.40941956573E+02  0.00000000000E+00 0. -1.
         22   -1    0    0    0    0 -0.00000000000E+00 -0.00000000000E+00 -0.10745656768E+00  0.10745656768E+00  0.00000000000E+00 0. -1.
          4    1    1    2  501    0 -0.13548230191E+01 -0.96998306679E+00  0.21404045951E+02  0.21506336174E+02  0.12700000000E+01 0. -1.
         -4    1    1    2    0  501  0.13548230191E+01  0.96998306679E+00  0.19430454054E+02  0.19543076966E+02  0.12700000000E+01 0. -1.
<mgrwt>
<rscale>  0 0.20950686E+01</rscale>
<asrwt>0</asrwt>
<pdfrwt beam="1">0</pdfrwt>
<pdfrwt beam="2">0</pdfrwt>
<totfact> 0.33371396E+12</totfact>
</mgrwt>
</event>
<event>
 4    1  0.1750553E+006  0.2306307E+01  0.7546771E-02  0.2800615E+00
         22   -1    0    0    0    0  0.00000000000E+00  0.00000000000E+00  0.10374887676E+02  0.10374887676E+02  0.00000000000E+00 0.  1.
         22   -1    0    0    0    0 -0.00000000000E+00 -0.00000000000E+00 -0.12419535175E+01  0.12419535175E+01  0.00000000000E+00 0. -1.
          4    1    1    2  501    0  0.14348868471E+01 -0.12834532936E+01  0.90173792338E+01  0.93076409936E+01  0.12700000000E+01 0.  1.
         -4    1    1    2    0  501 -0.14348868471E+01  0.12834532936E+01  0.11555492430E+00  0.23092001995E+01  0.12700000000E+01 0. -1.
<mgrwt>
<rscale>  0 0.23063071E+01</rscale>
<asrwt>0</asrwt>
<pdfrwt beam="1">0</pdfrwt>
<pdfrwt beam="2">0</pdfrwt>
<totfact> 0.11843178E+12</totfact>
</mgrwt>
</event>
<event>
 4    1  0.1750553E+006  0.2977210E+01  0.7546771E-02  0.2529431E+00
         22   -1    0    0    0    0  0.00000000000E+00  0.00000000000E+00  0.31320257029E+01  0.31320257029E+01  0.00000000000E+00 0.  1.
         22   -1    0    0    0    0 -0.00000000000E+00 -0.00000000000E+00 -0.51042054911E+01  0.51042054911E+01  0.00000000000E+00 0.  1.
          4    1    1    2  501    0  0.22806423953E+01  0.14316238545E+01  0.17627213858E+01  0.34599079872E+01  0.12700000000E+01 0.  1.
         -4    1    1    2    0  501 -0.22806423953E+01 -0.14316238545E+01 -0.37349011740E+01  0.47763232068E+01  0.12700000000E+01 0.  1.
<mgrwt>
<rscale>  0 0.29772095E+01</rscale>
<asrwt>0</asrwt>
<pdfrwt beam="1">0</pdfrwt>
<pdfrwt beam="2">0</pdfrwt>
<totfact> 0.94969663E+11</totfact>
</mgrwt>
</event>
<event>
 4    1  0.1750553E+006  0.2956309E+01  0.7546771E-02  0.2536170E+00
         22   -1    0    0    0    0  0.00000000000E+00  0.00000000000E+00  0.31162416483E+00  0.31162416483E+00  0.00000000000E+00 0. -1.
         22   -1    0    0    0    0 -0.00000000000E+00 -0.00000000000E+00 -0.54677097704E+02  0.54677097704E+02  0.00000000000E+00 0. -1.
          4    1    1    2  501    0 -0.23777363720E+01 -0.12137671839E+01 -0.79944255992E+01  0.85235322310E+01  0.12700000000E+01 0. -1.
         -4    1    1    2    0  501  0.23777363720E+01  0.12137671839E+01 -0.46371047940E+02  0.46465189637E+02  0.12700000000E+01 0. -1.
<mgrwt>
<rscale>  0 0.29563087E+01</rscale>
<asrwt>0</asrwt>
<pdfrwt beam="1">0</pdfrwt>
<pdfrwt beam="2">0</pdfrwt>
<totfact> 0.69666724E+11</totfact>
</mgrwt>
</event>
<event>
 4    1  0.1750553E+006  0.2129759E+01  0.7546771E-02  0.2898325E+00
         22   -1    0    0    0    0  0.00000000000E+00  0.00000000000E+00  0.39158270585E+01  0.39158270585E+01  0.00000000000E+00 0. -1.
         22   -1    0    0    0    0 -0.00000000000E+00 -0.00000000000E+00 -0.22063508944E+01  0.22063508944E+01  0.00000000000E+00 0. -1.
          4    1    1    2  501    0 -0.14059797666E+00  0.17038793826E+01 -0.12549625816E+01  0.24720040094E+01  0.12700000000E+01 0. -1.
         -4    1    1    2    0  501  0.14059797666E+00 -0.17038793826E+01  0.29644387457E+01  0.36501739436E+01  0.12700000000E+01 0. -1.
<mgrwt>
<rscale>  0 0.21297588E+01</rscale>
<asrwt>0</asrwt>
<pdfrwt beam="1">0</pdfrwt>
<pdfrwt beam="2">0</pdfrwt>
<totfact> 0.19525591E+12</totfact>
</mgrwt>
</event>
<event>
 4    1  0.1750553E+006  0.3394071E+01  0.7546771E-02  0.2410629E+00
         22   -1    0    0    0    0  0.00000000000E+00  0.00000000000E+00  0.17312666440E+02  0.17312666440E+02  0.00000000000E+00 0.  1.
         22   -1    0    0    0    0 -0.00000000000E+00 -0.00000000000E+00 -0.69489754571E+00  0.69489754571E+00  0.00000000000E+00 0. -1.
          4    1    1    2  501    0  0.68029250421E+00  0.30731125995E+01  0.10164177422E+02  0.10715886413E+02  0.12700000000E+01 0.  1.
         -4    1    1    2    0  501 -0.68029250421E+00 -0.30731125995E+01  0.64535914724E+01  0.72916775733E+01  0.12700000000E+01 0. -1.
<mgrwt>
<rscale>  0 0.33940711E+01</rscale>
<asrwt>0</asrwt>
<pdfrwt beam="1">0</pdfrwt>
<pdfrwt beam="2">0</pdfrwt>
<totfact> 0.12265986E+12</totfact>
</mgrwt>
</event>
<event>
 4    1  0.1750553E+006  0.4114773E+01  0.7546771E-02  0.2255878E+00
         22   -1    0    0    0    0  0.00000000000E+00  0.00000000000E+00  0.11784173341E+01  0.11784173341E+01  0.00000000000E+00 0. -1.
         22   -1    0    0    0    0 -0.00000000000E+00 -0.00000000000E+00 -0.14864950338E+02  0.14864950338E+02  0.00000000000E+00 0.  1.
          4    1    1    2  501    0 -0.15704650526E+01 -0.35849823934E+01 -0.53763932583E+01  0.67703001196E+01  0.12700000000E+01 0. -1.
         -4    1    1    2    0  501  0.15704650526E+01  0.35849823934E+01 -0.83101397456E+01  0.92730675525E+01  0.12700000000E+01 0.  1.
<mgrwt>
<rscale>  0 0.41147733E+01</rscale>
<asrwt>0</asrwt>
<pdfrwt beam="1">0</pdfrwt>
<pdfrwt beam="2">0</pdfrwt>
<totfact> 0.81079790E+11</totfact>
</mgrwt>
</event>
<event>
 4    1  0.1750553E+006  0.2061483E+01  0.7546771E-02  0.2940424E+00
         22   -1    0    0    0    0  0.00000000000E+00  0.00000000000E+00  0.16786930035E+02  0.16786930035E+02  0.00000000000E+00 0. -1.
         22   -1    0    0    0    0 -0.00000000000E+00 -0.00000000000E+00 -0.27635644225E+00  0.27635644225E+00  0.00000000000E+00 0.  1.
          4    1    1    2  501    0 -0.13057320923E+01 -0.96533745086E+00  0.57833027135E+01  0.61397315061E+01  0.12700000000E+01 0. -1.
         -4    1    1    2    0  501  0.13057320923E+01  0.96533745086E+00  0.10727270879E+02  0.10923554971E+02  0.12700000000E+01 0. -1.
<mgrwt>
<rscale>  0 0.20614831E+01</rscale>
<asrwt>0</asrwt>
<pdfrwt beam="1">0</pdfrwt>
<pdfrwt beam="2">0</pdfrwt>
<totfact> 0.36026950E+12</totfact>
</mgrwt>
</event>
<event>
 4    1  0.1750553E+006  0.2925133E+01  0.7546771E-02  0.2546381E+00
         22   -1    0    0    0    0  0.00000000000E+00  0.00000000000E+00  0.52611939200E+00  0.52611939200E+00  0.00000000000E+00 0. -1.
         22   -1    0    0    0    0 -0.00000000000E+00 -0.00000000000E+00 -0.36584669026E+02  0.36584669026E+02  0.00000000000E+00 0.  1.
          4    1    1    2  501    0  0.26310283890E+01  0.14557882523E+00 -0.42000514754E+01  0.51182844757E+01  0.12700000000E+01 0. -1.
         -4    1    1    2    0  501 -0.26310283890E+01 -0.14557882523E+00 -0.31858498159E+02  0.31992503942E+02  0.12700000000E+01 0.  1.
<mgrwt>
<rscale>  0 0.29251331E+01</rscale>
<asrwt>0</asrwt>
<pdfrwt beam="1">0</pdfrwt>
<pdfrwt beam="2">0</pdfrwt>
<totfact> 0.65353616E+11</totfact>
</mgrwt>
</event>
<event>
 4    1  0.1750553E+006  0.5514233E+01  0.7546771E-02  0.2066202E+00
         22   -1    0    0    0    0  0.00000000000E+00  0.00000000000E+00  0.30243747275E+01  0.30243747275E+01  0.00000000000E+00 0. -1.
         22   -1    0    0    0    0 -0.00000000000E+00 -0.00000000000E+00 -0.10301409427E+02  0.10301409427E+02  0.00000000000E+00 0.  1.
          4    1    1    2  501    0  0.51010083802E+01 -0.16654080614E+01 -0.46712968068E+01  0.72268792963E+01  0.12700000000E+01 0.  1.
         -4    1    1    2    0  501 -0.51010083802E+01  0.16654080614E+01 -0.26057378931E+01  0.60989048585E+01  0.12700000000E+01 0. -1.
<mgrwt>
<rscale>  0 0.55142334E+01</rscale>
<asrwt>0</asrwt>
<pdfrwt beam="1">0</pdfrwt>
<pdfrwt beam="2">0</pdfrwt>
<totfact> 0.42662398E+11</totfact>
</mgrwt>
</event>
<event>
 4    1  0.1750553E+006  0.5735962E+01  0.7546771E-02  0.2044209E+00
         22   -1    0    0    0    0  0.00000000000E+00  0.00000000000E+00  0.56207600539E+01  0.56207600539E+01  0.00000000000E+00 0.  1.
         22   -1    0    0    0    0 -0.00000000000E+00 -0.00000000000E+00 -0.65312865478E+01  0.65312865478E+01  0.00000000000E+00 0. -1.
          4    1    1    2  501    0  0.13971201301E+01  0.54163102814E+01  0.15020412669E+01  0.59293667191E+01  0.12700000000E+01 0. -1.
         -4    1    1    2    0  501 -0.13971201301E+01 -0.54163102814E+01 -0.24125677608E+01  0.62226798827E+01  0.12700000000E+01 0.  1.
<mgrwt>
<rscale>  0 0.57359621E+01</rscale>
<asrwt>0</asrwt>
<pdfrwt beam="1">0</pdfrwt>
<pdfrwt beam="2">0</pdfrwt>
<totfact> 0.35562951E+11</totfact>
</mgrwt>
</event>
<event>
 4    1  0.1750553E+006  0.2249907E+01  0.7546771E-02  0.2830235E+00
         22   -1    0    0    0    0  0.00000000000E+00  0.00000000000E+00  0.22817855038E+01  0.22817855038E+01  0.00000000000E+00 0.  1.
         22   -1    0    0    0    0 -0.00000000000E+00 -0.00000000000E+00 -0.26300703214E+01  0.26300703214E+01  0.00000000000E+00 0. -1.
          4    1    1    2  501    0 -0.37649135985E+00  0.18186360272E+01  0.79741275009E+00  0.23870378793E+01  0.12700000000E+01 0.  1.
         -4    1    1    2    0  501  0.37649135985E+00 -0.18186360272E+01 -0.11456975677E+01  0.25248179459E+01  0.12700000000E+01 0. -1.
<mgrwt>
<rscale>  0 0.22499073E+01</rscale>
<asrwt>0</asrwt>
<pdfrwt beam="1">0</pdfrwt>
<pdfrwt beam="2">0</pdfrwt>
<totfact> 0.29919058E+12</totfact>
</mgrwt>
</event>
<event>
 4    1  0.1750553E+006  0.2046581E+01  0.7546771E-02  0.2949976E+00
         22   -1    0    0    0    0  0.00000000000E+00  0.00000000000E+00  0.58602933106E+00  0.58602933106E+00  0.00000000000E+00 0. -1.
         22   -1    0    0    0    0 -0.00000000000E+00 -0.00000000000E+00 -0.99187072726E+01  0.99187072726E+01  0.00000000000E+00 0.  1.
          4    1    1    2  501    0  0.15577016698E+01  0.38620912857E+00 -0.18899356735E+01  0.27857402666E+01  0.12700000000E+01 0.  1.
         -4    1    1    2    0  501 -0.15577016698E+01 -0.38620912857E+00 -0.74427422680E+01  0.77189963371E+01  0.12700000000E+01 0. -1.
<mgrwt>
<rscale>  0 0.20465806E+01</rscale>
<asrwt>0</asrwt>
<pdfrwt beam="1">0</pdfrwt>
<pdfrwt beam="2">0</pdfrwt>
<totfact> 0.29417962E+12</totfact>
</mgrwt>
</event>
<event>
 4    1  0.1750553E+006  0.2046868E+01  0.7546771E-02  0.2949790E+00
         22   -1    0    0    0    0  0.00000000000E+00  0.00000000000E+00  0.65942998499E+01  0.65942998499E+01  0.00000000000E+00 0. -1.
         22   -1    0    0    0    0 -0.00000000000E+00 -0.00000000000E+00 -0.67807378296E+00  0.67807378296E+00  0.00000000000E+00 0. -1.
          4    1    1    2  501    0  0.37145542531E+00 -0.15616628364E+01  0.38708734347E+01  0.43787362441E+01  0.12700000000E+01 0. -1.
         -4    1    1    2    0  501 -0.37145542531E+00  0.15616628364E+01  0.20453526322E+01  0.28936373887E+01  0.12700000000E+01 0. -1.
<mgrwt>
<rscale>  0 0.20468683E+01</rscale>
<asrwt>0</asrwt>
<pdfrwt beam="1">0</pdfrwt>
<pdfrwt beam="2">0</pdfrwt>
<totfact> 0.40729507E+12</totfact>
</mgrwt>
</event>
<event>
 4    1  0.1750553E+006  0.2198197E+01  0.7546771E-02  0.2858665E+00
         22   -1    0    0    0    0  0.00000000000E+00  0.00000000000E+00  0.78590911226E+01  0.78590911226E+01  0.00000000000E+00 0.  1.
         22   -1    0    0    0    0 -0.00000000000E+00 -0.00000000000E+00 -0.19258716987E+01  0.19258716987E+01  0.00000000000E+00 0. -1.
          4    1    1    2  501    0 -0.78245506275E+00 -0.16146007179E+01  0.70032714817E+01  0.73401555058E+01  0.12700000000E+01 0.  1.
         -4    1    1    2    0  501  0.78245506275E+00  0.16146007179E+01 -0.10700520578E+01  0.24448073155E+01  0.12700000000E+01 0. -1.
<mgrwt>
<rscale>  0 0.21981973E+01</rscale>
<asrwt>0</asrwt>
<pdfrwt beam="1">0</pdfrwt>
<pdfrwt beam="2">0</pdfrwt>
<totfact> 0.99911344E+11</totfact>
</mgrwt>
</event>
<event>
 4    1  0.1750553E+006  0.2729607E+01  0.7546771E-02  0.2615214E+00
         22   -1    0    0    0    0  0.00000000000E+00  0.00000000000E+00  0.74752460292E+00  0.74752460292E+00  0.00000000000E+00 0. -1.
         22   -1    0    0    0    0 -0.00000000000E+00 -0.00000000000E+00 -0.21297311933E+02  0.21297311933E+02  0.00000000000E+00 0. -1.
          4    1    1    2  501    0  0.24161248086E+01  0.14058448285E-01 -0.22353604302E+01  0.35281146500E+01  0.12700000000E+01 0. -1.
         -4    1    1    2    0  501 -0.24161248086E+01 -0.14058448285E-01 -0.18314426900E+02  0.18516721886E+02  0.12700000000E+01 0. -1.
<mgrwt>
<rscale>  0 0.27296074E+01</rscale>
<asrwt>0</asrwt>
<pdfrwt beam="1">0</pdfrwt>
<pdfrwt beam="2">0</pdfrwt>
<totfact> 0.87242478E+11</totfact>
</mgrwt>
</event>
<event>
 4    1  0.1750553E+006  0.3650493E+01  0.7546771E-02  0.2349536E+00
         22   -1    0    0    0    0  0.00000000000E+00  0.00000000000E+00  0.20732156957E+01  0.20732156957E+01  0.00000000000E+00 0.  1.
         22   -1    0    0    0    0 -0.00000000000E+00 -0.00000000000E+00 -0.96400836485E+01  0.96400836485E+01  0.00000000000E+00 0. -1.
          4    1    1    2  501    0  0.34200416141E+01 -0.12850111120E+00 -0.40263258667E+00  0.36726298721E+01  0.12700000000E+01 0.  1.
         -4    1    1    2    0  501 -0.34200416141E+01  0.12850111120E+00 -0.71642353661E+01  0.80406694721E+01  0.12700000000E+01 0. -1.
<mgrwt>
<rscale>  0 0.36504927E+01</rscale>
<asrwt>0</asrwt>
<pdfrwt beam="1">0</pdfrwt>
<pdfrwt beam="2">0</pdfrwt>
<totfact> 0.71729937E+11</totfact>
</mgrwt>
</event>
<event>
 4    1  0.1750553E+006  0.2055872E+01  0.7546771E-02  0.2944005E+00
         22   -1    0    0    0    0  0.00000000000E+00  0.00000000000E+00  0.60700647674E+00  0.60700647674E+00  0.00000000000E+00 0. -1.
         22   -1    0    0    0    0 -0.00000000000E+00 -0.00000000000E+00 -0.11990802059E+02  0.11990802059E+02  0.00000000000E+00 0.  1.
          4    1    1    2  501    0  0.11997648718E+01  0.10836387581E+01 -0.16131357573E+01  0.26132002750E+01  0.12700000000E+01 0. -1.
         -4    1    1    2    0  501 -0.11997648718E+01 -0.10836387581E+01 -0.97706598253E+01  0.99846082611E+01  0.12700000000E+01 0.  1.
<mgrwt>
<rscale>  0 0.20558718E+01</rscale>
<asrwt>0</asrwt>
<pdfrwt beam="1">0</pdfrwt>
<pdfrwt beam="2">0</pdfrwt>
<totfact> 0.22450357E+12</totfact>
</mgrwt>
</event>
<event>
 4    1  0.1750553E+006  0.3109966E+01  0.7546771E-02  0.2488532E+00
         22   -1    0    0    0    0  0.00000000000E+00  0.00000000000E+00  0.42448128366E+01  0.42448128366E+01  0.00000000000E+00 0. -1.
         22   -1    0    0    0    0 -0.00000000000E+00 -0.00000000000E+00 -0.28928893289E+01  0.28928893289E+01  0.00000000000E+00 0.  1.
          4    1    1    2  501    0 -0.11625179013E+01 -0.25898924378E+01  0.23206261824E+01  0.38803603685E+01  0.12700000000E+01 0. -1.
         -4    1    1    2    0  501  0.11625179013E+01  0.25898924378E+01 -0.96870267479E+00  0.32573417970E+01  0.12700000000E+01 0. -1.
<mgrwt>
<rscale>  0 0.31099664E+01</rscale>
<asrwt>0</asrwt>
<pdfrwt beam="1">0</pdfrwt>
<pdfrwt beam="2">0</pdfrwt>
<totfact> 0.12956762E+12</totfact>
</mgrwt>
</event>
<event>
 4    1  0.1750553E+006  0.2677335E+01  0.7546771E-02  0.2635161E+00
         22   -1    0    0    0    0  0.00000000000E+00  0.00000000000E+00  0.10000840530E+01  0.10000840530E+01  0.00000000000E+00 0. -1.
         22   -1    0    0    0    0 -0.00000000000E+00 -0.00000000000E+00 -0.77906944306E+01  0.77906944306E+01  0.00000000000E+00 0.  1.
          4    1    1    2  501    0  0.73947658194E+00 -0.22379444764E+01 -0.21521809315E+01  0.34351133688E+01  0.12700000000E+01 0. -1.
         -4    1    1    2    0  501 -0.73947658194E+00  0.22379444764E+01 -0.46384294462E+01  0.53556651148E+01  0.12700000000E+01 0. -1.
<mgrwt>
<rscale>  0 0.26773347E+01</rscale>
<asrwt>0</asrwt>
<pdfrwt beam="1">0</pdfrwt>
<pdfrwt beam="2">0</pdfrwt>
<totfact> 0.21438348E+12</totfact>
</mgrwt>
</event>
<event>
 4    1  0.1750553E+006  0.2730370E+01  0.7546771E-02  0.2614928E+00
         22   -1    0    0    0    0  0.00000000000E+00  0.00000000000E+00  0.47957635446E+01  0.47957635446E+01  0.00000000000E+00 0.  1.
         22   -1    0    0    0    0 -0.00000000000E+00 -0.00000000000E+00 -0.21822776784E+01  0.21822776784E+01  0.00000000000E+00 0. -1.
          4    1    1    2  501    0 -0.71165350151E+00  0.23098855221E+01  0.31781063847E+01  0.41899023884E+01  0.12700000000E+01 0.  1.
         -4    1    1    2    0  501  0.71165350151E+00 -0.23098855221E+01 -0.56462051860E+00  0.27881388346E+01  0.12700000000E+01 0. -1.
<mgrwt>
<rscale>  0 0.27303703E+01</rscale>
<asrwt>0</asrwt>
<pdfrwt beam="1">0</pdfrwt>
<pdfrwt beam="2">0</pdfrwt>
<totfact> 0.15571877E+12</totfact>
</mgrwt>
</event>
<event>
 4    1  0.1750553E+006  0.2387469E+01  0.7546771E-02  0.2760321E+00
         22   -1    0    0    0    0  0.00000000000E+00  0.00000000000E+00  0.58901401582E+00  0.58901401582E+00  0.00000000000E+00 0. -1.
         22   -1    0    0    0    0 -0.00000000000E+00 -0.00000000000E+00 -0.10249996133E+02  0.10249996133E+02  0.00000000000E+00 0.  1.
          4    1    1    2  501    0 -0.13295528477E+01  0.15229575131E+01 -0.35493549047E+01  0.42776080467E+01  0.12700000000E+01 0.  1.
         -4    1    1    2    0  501  0.13295528477E+01 -0.15229575131E+01 -0.61116272122E+01  0.65614021019E+01  0.12700000000E+01 0. -1.
<mgrwt>
<rscale>  0 0.23874694E+01</rscale>
<asrwt>0</asrwt>
<pdfrwt beam="1">0</pdfrwt>
<pdfrwt beam="2">0</pdfrwt>
<totfact> 0.28110123E+12</totfact>
</mgrwt>
</event>
<event>
 4    1  0.1750553E+006  0.2486535E+01  0.7546771E-02  0.2714496E+00
         22   -1    0    0    0    0  0.00000000000E+00  0.00000000000E+00  0.97549750592E+01  0.97549750592E+01  0.00000000000E+00 0.  1.
         22   -1    0    0    0    0 -0.00000000000E+00 -0.00000000000E+00 -0.84869508790E+00  0.84869508790E+00  0.00000000000E+00 0. -1.
          4    1    1    2  501    0 -0.19708356600E+01 -0.82810692685E+00  0.71209073938E+01  0.75425576824E+01  0.12700000000E+01 0.  1.
         -4    1    1    2    0  501  0.19708356600E+01  0.82810692685E+00  0.17853725775E+01  0.30611124647E+01  0.12700000000E+01 0. -1.
<mgrwt>
<rscale>  0 0.24865346E+01</rscale>
<asrwt>0</asrwt>
<pdfrwt beam="1">0</pdfrwt>
<pdfrwt beam="2">0</pdfrwt>
<totfact> 0.19715410E+12</totfact>
</mgrwt>
</event>
<event>
 4    1  0.1750553E+006  0.2734715E+01  0.7546771E-02  0.2613302E+00
         22   -1    0    0    0    0  0.00000000000E+00  0.00000000000E+00  0.76344178051E+00  0.76344178051E+00  0.00000000000E+00 0.  1.
         22   -1    0    0    0    0 -0.00000000000E+00 -0.00000000000E+00 -0.25874931691E+02  0.25874931691E+02  0.00000000000E+00 0. -1.
          4    1    1    2  501    0  0.18756370210E+01 -0.15322372336E+01 -0.20562869031E+01  0.34215465805E+01  0.12700000000E+01 0.  1.
         -4    1    1    2    0  501 -0.18756370210E+01  0.15322372336E+01 -0.23055203007E+02  0.23216826891E+02  0.12700000000E+01 0. -1.
<mgrwt>
<rscale>  0 0.27347148E+01</rscale>
<asrwt>0</asrwt>
<pdfrwt beam="1">0</pdfrwt>
<pdfrwt beam="2">0</pdfrwt>
<totfact> 0.66684876E+11</totfact>
</mgrwt>
</event>
<event>
 4    1  0.1750553E+006  0.4511950E+01  0.7546771E-02  0.2188956E+00
         22   -1    0    0    0    0  0.00000000000E+00  0.00000000000E+00  0.22420671346E+02  0.22420671346E+02  0.00000000000E+00 0.  1.
         22   -1    0    0    0    0 -0.00000000000E+00 -0.00000000000E+00 -0.10914769582E+02  0.10914769582E+02  0.00000000000E+00 0. -1.
          4    1    1    2  501    0  0.28337159953E+01  0.32733539555E+01  0.21712335468E+02  0.22176185513E+02  0.12700000000E+01 0.  1.
         -4    1    1    2    0  501 -0.28337159953E+01 -0.32733539555E+01 -0.10206433704E+02  0.11159255415E+02  0.12700000000E+01 0. -1.
<mgrwt>
<rscale>  0 0.45119500E+01</rscale>
<asrwt>0</asrwt>
<pdfrwt beam="1">0</pdfrwt>
<pdfrwt beam="2">0</pdfrwt>
<totfact> 0.35547786E+10</totfact>
</mgrwt>
</event>
<event>
 4    1  0.1750553E+006  0.2169424E+01  0.7546771E-02  0.2875045E+00
         22   -1    0    0    0    0  0.00000000000E+00  0.00000000000E+00  0.11861822912E+00  0.11861822912E+00  0.00000000000E+00 0.  1.
         22   -1    0    0    0    0 -0.00000000000E+00 -0.00000000000E+00 -0.39855579270E+02  0.39855579270E+02  0.00000000000E+00 0. -1.
          4    1    1    2  501    0  0.84892999531E-01 -0.17567852304E+01 -0.18530137744E+02  0.18656698689E+02  0.12700000000E+01 0. -1.
         -4    1    1    2    0  501 -0.84892999531E-01  0.17567852304E+01 -0.21206823297E+02  0.21317498810E+02  0.12700000000E+01 0.  1.
<mgrwt>
<rscale>  0 0.21694242E+01</rscale>
<asrwt>0</asrwt>
<pdfrwt beam="1">0</pdfrwt>
<pdfrwt beam="2">0</pdfrwt>
<totfact> 0.30972842E+12</totfact>
</mgrwt>
</event>
<event>
 4    1  0.1750553E+006  0.2566714E+01  0.7546771E-02  0.2679829E+00
         22   -1    0    0    0    0  0.00000000000E+00  0.00000000000E+00  0.17205976612E+01  0.17205976612E+01  0.00000000000E+00 0.  1.
         22   -1    0    0    0    0 -0.00000000000E+00 -0.00000000000E+00 -0.38560172141E+01  0.38560172141E+01  0.00000000000E+00 0.  1.
          4    1    1    2  501    0 -0.14971991175E+01  0.16533354178E+01 -0.13014690615E+01  0.28778194730E+01  0.12700000000E+01 0.  1.
         -4    1    1    2    0  501  0.14971991175E+01 -0.16533354178E+01 -0.83395049140E+00  0.26987954023E+01  0.12700000000E+01 0.  1.
<mgrwt>
<rscale>  0 0.25667145E+01</rscale>
<asrwt>0</asrwt>
<pdfrwt beam="1">0</pdfrwt>
<pdfrwt beam="2">0</pdfrwt>
<totfact> 0.26510753E+12</totfact>
</mgrwt>
</event>
<event>
 4    1  0.1750553E+006  0.3266473E+01  0.7546771E-02  0.2444136E+00
         22   -1    0    0    0    0  0.00000000000E+00  0.00000000000E+00  0.19198102545E+01  0.19198102545E+01  0.00000000000E+00 0.  1.
         22   -1    0    0    0    0 -0.00000000000E+00 -0.00000000000E+00 -0.10626695931E+02  0.10626695931E+02  0.00000000000E+00 0. -1.
          4    1    1    2  501    0  0.23538796879E+01  0.18751529649E+01 -0.20808839540E-01  0.32665396423E+01  0.12700000000E+01 0.  1.
         -4    1    1    2    0  501 -0.23538796879E+01 -0.18751529649E+01 -0.86860768367E+01  0.92799665431E+01  0.12700000000E+01 0. -1.
<mgrwt>
<rscale>  0 0.32664734E+01</rscale>
<asrwt>0</asrwt>
<pdfrwt beam="1">0</pdfrwt>
<pdfrwt beam="2">0</pdfrwt>
<totfact> 0.69674701E+11</totfact>
</mgrwt>
</event>
<event>
 4    1  0.1750553E+006  0.3167512E+01  0.7546771E-02  0.2471756E+00
         22   -1    0    0    0    0  0.00000000000E+00  0.00000000000E+00  0.47642855938E+01  0.47642855938E+01  0.00000000000E+00 0.  1.
         22   -1    0    0    0    0 -0.00000000000E+00 -0.00000000000E+00 -0.34546788630E+01  0.34546788630E+01  0.00000000000E+00 0. -1.
          4    1    1    2  501    0  0.81506230732E+00  0.27849432002E+01  0.32225534779E+01  0.45186265735E+01  0.12700000000E+01 0.  1.
         -4    1    1    2    0  501 -0.81506230732E+00 -0.27849432002E+01 -0.19129467471E+01  0.37003378833E+01  0.12700000000E+01 0. -1.
<mgrwt>
<rscale>  0 0.31675125E+01</rscale>
<asrwt>0</asrwt>
<pdfrwt beam="1">0</pdfrwt>
<pdfrwt beam="2">0</pdfrwt>
<totfact> 0.91865569E+11</totfact>
</mgrwt>
</event>
<event>
 4    1  0.1750553E+006  0.2108212E+01  0.7546771E-02  0.2911325E+00
         22   -1    0    0    0    0  0.00000000000E+00  0.00000000000E+00  0.11466200632E+01  0.11466200632E+01  0.00000000000E+00 0. -1.
         22   -1    0    0    0    0 -0.00000000000E+00 -0.00000000000E+00 -0.50065188571E+01  0.50065188571E+01  0.00000000000E+00 0. -1.
          4    1    1    2  501    0  0.18520510269E+00  0.16725300042E+01 -0.33917712443E+01  0.39935785604E+01  0.12700000000E+01 0. -1.
         -4    1    1    2    0  501 -0.18520510269E+00 -0.16725300042E+01 -0.46812754966E+00  0.21595603598E+01  0.12700000000E+01 0. -1.
<mgrwt>
<rscale>  0 0.21082119E+01</rscale>
<asrwt>0</asrwt>
<pdfrwt beam="1">0</pdfrwt>
<pdfrwt beam="2">0</pdfrwt>
<totfact> 0.31057783E+12</totfact>
</mgrwt>
</event>
<event>
 4    1  0.1750553E+006  0.2178719E+01  0.7546771E-02  0.2869708E+00
         22   -1    0    0    0    0  0.00000000000E+00  0.00000000000E+00  0.18928488092E+00  0.18928488092E+00  0.00000000000E+00 0. -1.
         22   -1    0    0    0    0 -0.00000000000E+00 -0.00000000000E+00 -0.31592838024E+02  0.31592838024E+02  0.00000000000E+00 0. -1.
          4    1    1    2  501    0 -0.15654433073E+01 -0.82662300002E+00 -0.22918205787E+02  0.23021532851E+02  0.12700000000E+01 0. -1.
         -4    1    1    2    0  501  0.15654433073E+01  0.82662300002E+00 -0.84853473561E+01  0.87605900536E+01  0.12700000000E+01 0. -1.
<mgrwt>
<rscale>  0 0.21787194E+01</rscale>
<asrwt>0</asrwt>
<pdfrwt beam="1">0</pdfrwt>
<pdfrwt beam="2">0</pdfrwt>
<totfact> 0.24845545E+12</totfact>
</mgrwt>
</event>
<event>
 4    1  0.1750553E+006  0.2137626E+01  0.7546771E-02  0.2893641E+00
         22   -1    0    0    0    0  0.00000000000E+00  0.00000000000E+00  0.39869371146E+01  0.39869371146E+01  0.00000000000E+00 0.  1.
         22   -1    0    0    0    0 -0.00000000000E+00 -0.00000000000E+00 -0.17114292363E+01  0.17114292363E+01  0.00000000000E+00 0. -1.
          4    1    1    2  501    0 -0.12278951181E+01 -0.12036693001E+01  0.27752864354E+01  0.35030930624E+01  0.12700000000E+01 0.  1.
         -4    1    1    2    0  501  0.12278951181E+01  0.12036693001E+01 -0.49977855712E+00  0.21952732885E+01  0.12700000000E+01 0. -1.
<mgrwt>
<rscale>  0 0.21376263E+01</rscale>
<asrwt>0</asrwt>
<pdfrwt beam="1">0</pdfrwt>
<pdfrwt beam="2">0</pdfrwt>
<totfact> 0.25646029E+12</totfact>
</mgrwt>
</event>
<event>
 4    1  0.1750553E+006  0.2503852E+01  0.7546771E-02  0.2706834E+00
         22   -1    0    0    0    0  0.00000000000E+00  0.00000000000E+00  0.10295731167E+02  0.10295731167E+02  0.00000000000E+00 0.  1.
         22   -1    0    0    0    0 -0.00000000000E+00 -0.00000000000E+00 -0.64500507047E+00  0.64500507047E+00  0.00000000000E+00 0.  1.
          4    1    1    2  501    0 -0.14782408941E+01  0.15719979798E+01  0.35314639131E+01  0.43290312033E+01  0.12700000000E+01 0.  1.
         -4    1    1    2    0  501  0.14782408941E+01 -0.15719979798E+01  0.61192621836E+01  0.66117050344E+01  0.12700000000E+01 0.  1.
<mgrwt>
<rscale>  0 0.25038518E+01</rscale>
<asrwt>0</asrwt>
<pdfrwt beam="1">0</pdfrwt>
<pdfrwt beam="2">0</pdfrwt>
<totfact> 0.25225968E+12</totfact>
</mgrwt>
</event>
<event>
 4    1  0.1750553E+006  0.2076231E+01  0.7546771E-02  0.2931103E+00
         22   -1    0    0    0    0  0.00000000000E+00  0.00000000000E+00  0.56887264375E+00  0.56887264375E+00  0.00000000000E+00 0.  1.
         22   -1    0    0    0    0 -0.00000000000E+00 -0.00000000000E+00 -0.76967355542E+01  0.76967355542E+01  0.00000000000E+00 0.  1.
          4    1    1    2  501    0 -0.79401094091E+00  0.14378390955E+01 -0.40779361209E+01  0.45760569975E+01  0.12700000000E+01 0.  1.
         -4    1    1    2    0  501  0.79401094091E+00 -0.14378390955E+01 -0.30499267896E+01  0.36895512004E+01  0.12700000000E+01 0.  1.
<mgrwt>
<rscale>  0 0.20762309E+01</rscale>
<asrwt>0</asrwt>
<pdfrwt beam="1">0</pdfrwt>
<pdfrwt beam="2">0</pdfrwt>
<totfact> 0.41301176E+12</totfact>
</mgrwt>
</event>
<event>
 4    1  0.1750553E+006  0.2548375E+01  0.7546771E-02  0.2687580E+00
         22   -1    0    0    0    0  0.00000000000E+00  0.00000000000E+00  0.14559508158E+02  0.14559508158E+02  0.00000000000E+00 0. -1.
         22   -1    0    0    0    0 -0.00000000000E+00 -0.00000000000E+00 -0.94304789491E+00  0.94304789491E+00  0.00000000000E+00 0.  1.
          4    1    1    2  501    0  0.77944772365E+00  0.20673112367E+01  0.12435339266E+02  0.12693773165E+02  0.12700000000E+01 0. -1.
         -4    1    1    2    0  501 -0.77944772365E+00 -0.20673112367E+01  0.11811209975E+01  0.28087828884E+01  0.12700000000E+01 0.  1.
<mgrwt>
<rscale>  0 0.25483749E+01</rscale>
<asrwt>0</asrwt>
<pdfrwt beam="1">0</pdfrwt>
<pdfrwt beam="2">0</pdfrwt>
<totfact> 0.10729872E+12</totfact>
</mgrwt>
</event>
<event>
 4    1  0.1750553E+006  0.3018646E+01  0.7546771E-02  0.2516321E+00
         22   -1    0    0    0    0  0.00000000000E+00  0.00000000000E+00  0.26749161538E+02  0.26749161538E+02  0.00000000000E+00 0.  1.
         22   -1    0    0    0    0 -0.00000000000E+00 -0.00000000000E+00 -0.34079563396E+00  0.34079563396E+00  0.00000000000E+00 0.  1.
          4    1    1    2  501    0 -0.62670804904E+00 -0.26658129346E+01  0.12928515487E+02  0.13276246995E+02  0.12700000000E+01 0.  1.
         -4    1    1    2    0  501  0.62670804904E+00  0.26658129346E+01  0.13479850417E+02  0.13813710177E+02  0.12700000000E+01 0.  1.
<mgrwt>
<rscale>  0 0.30186457E+01</rscale>
<asrwt>0</asrwt>
<pdfrwt beam="1">0</pdfrwt>
<pdfrwt beam="2">0</pdfrwt>
<totfact> 0.15903354E+12</totfact>
</mgrwt>
</event>
<event>
 4    1  0.1750553E+006  0.2313419E+01  0.7546771E-02  0.2796977E+00
         22   -1    0    0    0    0  0.00000000000E+00  0.00000000000E+00  0.42741412067E+01  0.42741412067E+01  0.00000000000E+00 0.  1.
         22   -1    0    0    0    0 -0.00000000000E+00 -0.00000000000E+00 -0.12537486266E+01  0.12537486266E+01  0.00000000000E+00 0. -1.
          4    1    1    2  501    0 -0.19190429272E+01 -0.23724233764E+00  0.16085752261E+01  0.28176983411E+01  0.12700000000E+01 0.  1.
         -4    1    1    2    0  501  0.19190429272E+01  0.23724233764E+00  0.14118173540E+01  0.27101914922E+01  0.12700000000E+01 0. -1.
<mgrwt>
<rscale>  0 0.23134195E+01</rscale>
<asrwt>0</asrwt>
<pdfrwt beam="1">0</pdfrwt>
<pdfrwt beam="2">0</pdfrwt>
<totfact> 0.33798134E+12</totfact>
</mgrwt>
</event>
<event>
 4    1  0.1750553E+006  0.2055169E+01  0.7546771E-02  0.2944455E+00
         22   -1    0    0    0    0  0.00000000000E+00  0.00000000000E+00  0.41164552865E-01  0.41164552865E-01  0.00000000000E+00 0. -1.
         22   -1    0    0    0    0 -0.00000000000E+00 -0.00000000000E+00 -0.10521183094E+03  0.10521183094E+03  0.00000000000E+00 0. -1.
          4    1    1    2  501    0 -0.14202813909E+01 -0.77046836599E+00 -0.60867887316E+02  0.60902573239E+02  0.12700000000E+01 0. -1.
         -4    1    1    2    0  501  0.14202813909E+01  0.77046836599E+00 -0.44302779066E+02  0.44350422249E+02  0.12700000000E+01 0. -1.
<mgrwt>
<rscale>  0 0.20551693E+01</rscale>
<asrwt>0</asrwt>
<pdfrwt beam="1">0</pdfrwt>
<pdfrwt beam="2">0</pdfrwt>
<totfact> 0.26833140E+12</totfact>
</mgrwt>
</event>
<event>
 4    1  0.1750553E+006  0.2421771E+01  0.7546771E-02  0.2744057E+00
         22   -1    0    0    0    0  0.00000000000E+00  0.00000000000E+00  0.54006185129E+00  0.54006185129E+00  0.00000000000E+00 0. -1.
         22   -1    0    0    0    0 -0.00000000000E+00 -0.00000000000E+00 -0.18686360408E+02  0.18686360408E+02  0.00000000000E+00 0.  1.
          4    1    1    2  501    0  0.17700429683E+01 -0.10578380598E+01 -0.28517068217E+01  0.37412839063E+01  0.12700000000E+01 0. -1.
         -4    1    1    2    0  501 -0.17700429683E+01  0.10578380598E+01 -0.15294591735E+02  0.15485138353E+02  0.12700000000E+01 0.  1.
<mgrwt>
<rscale>  0 0.24217707E+01</rscale>
<asrwt>0</asrwt>
<pdfrwt beam="1">0</pdfrwt>
<pdfrwt beam="2">0</pdfrwt>
<totfact> 0.14844095E+12</totfact>
</mgrwt>
</event>
<event>
 4    1  0.1750553E+006  0.2125498E+01  0.7546771E-02  0.2900876E+00
         22   -1    0    0    0    0  0.00000000000E+00  0.00000000000E+00  0.13774093169E+01  0.13774093169E+01  0.00000000000E+00 0.  1.
         22   -1    0    0    0    0 -0.00000000000E+00 -0.00000000000E+00 -0.33533023740E+01  0.33533023740E+01  0.00000000000E+00 0. -1.
          4    1    1    2  501    0 -0.97593033623E+00 -0.13972831310E+01 -0.13379465840E+01  0.25115416045E+01  0.12700000000E+01 0. -1.
         -4    1    1    2    0  501  0.97593033623E+00  0.13972831310E+01 -0.63794647315E+00  0.22191700863E+01  0.12700000000E+01 0.  1.
<mgrwt>
<rscale>  0 0.21254976E+01</rscale>
<asrwt>0</asrwt>
<pdfrwt beam="1">0</pdfrwt>
<pdfrwt beam="2">0</pdfrwt>
<totfact> 0.40347427E+12</totfact>
</mgrwt>
</event>
<event>
 4    1  0.1750553E+006  0.7565183E+01  0.7546771E-02  0.1902463E+00
         22   -1    0    0    0    0  0.00000000000E+00  0.00000000000E+00  0.20310994475E+02  0.20310994475E+02  0.00000000000E+00 0. -1.
         22   -1    0    0    0    0 -0.00000000000E+00 -0.00000000000E+00 -0.31031796245E+01  0.31031796245E+01  0.00000000000E+00 0.  1.
          4    1    1    2  501    0  0.52000627674E+01 -0.53458801132E+01  0.50535722463E+01  0.90978337762E+01  0.12700000000E+01 0.  1.
         -4    1    1    2    0  501 -0.52000627674E+01  0.53458801132E+01  0.12154242604E+02  0.14316340323E+02  0.12700000000E+01 0. -1.
<mgrwt>
<rscale>  0 0.75651825E+01</rscale>
<asrwt>0</asrwt>
<pdfrwt beam="1">0</pdfrwt>
<pdfrwt beam="2">0</pdfrwt>
<totfact> 0.17971835E+11</totfact>
</mgrwt>
</event>
<event>
 4    1  0.1750553E+006  0.2713478E+01  0.7546771E-02  0.2621294E+00
         22   -1    0    0    0    0  0.00000000000E+00  0.00000000000E+00  0.11442900214E+02  0.11442900214E+02  0.00000000000E+00 0. -1.
         22   -1    0    0    0    0 -0.00000000000E+00 -0.00000000000E+00 -0.67736820911E+00  0.67736820911E+00  0.00000000000E+00 0. -1.
          4    1    1    2  501    0 -0.22936446690E+01  0.69946989865E+00  0.67387968992E+01  0.72645954915E+01  0.12700000000E+01 0. -1.
         -4    1    1    2    0  501  0.22936446690E+01 -0.69946989865E+00  0.40267351054E+01  0.48556729313E+01  0.12700000000E+01 0. -1.
<mgrwt>
<rscale>  0 0.27134782E+01</rscale>
<asrwt>0</asrwt>
<pdfrwt beam="1">0</pdfrwt>
<pdfrwt beam="2">0</pdfrwt>
<totfact> 0.20990155E+12</totfact>
</mgrwt>
</event>
<event>
 4    1  0.1750553E+006  0.2371861E+01  0.7546771E-02  0.2767867E+00
         22   -1    0    0    0    0  0.00000000000E+00  0.00000000000E+00  0.49862100343E+02  0.49862100343E+02  0.00000000000E+00 0.  1.
         22   -1    0    0    0    0 -0.00000000000E+00 -0.00000000000E+00 -0.17034381691E+00  0.17034381691E+00  0.00000000000E+00 0. -1.
          4    1    1    2  501    0 -0.72304632318E+00 -0.18681620282E+01  0.10309341740E+02  0.10578669693E+02  0.12700000000E+01 0. -1.
         -4    1    1    2    0  501  0.72304632318E+00  0.18681620282E+01  0.39382414785E+02  0.39453774467E+02  0.12700000000E+01 0.  1.
<mgrwt>
<rscale>  0 0.23718612E+01</rscale>
<asrwt>0</asrwt>
<pdfrwt beam="1">0</pdfrwt>
<pdfrwt beam="2">0</pdfrwt>
<totfact> 0.15456844E+12</totfact>
</mgrwt>
</event>
<event>
 4    1  0.1750553E+006  0.2711859E+01  0.7546771E-02  0.2621907E+00
         22   -1    0    0    0    0  0.00000000000E+00  0.00000000000E+00  0.95570185475E-01  0.95570185475E-01  0.00000000000E+00 0. -1.
         22   -1    0    0    0    0 -0.00000000000E+00 -0.00000000000E+00 -0.89227722503E+02  0.89227722503E+02  0.00000000000E+00 0.  1.
          4    1    1    2  501    0 -0.20153781422E+01  0.12959677659E+01 -0.27999475008E+02  0.28130495592E+02  0.12700000000E+01 0. -1.
         -4    1    1    2    0  501  0.20153781422E+01 -0.12959677659E+01 -0.61132677309E+02  0.61192797097E+02  0.12700000000E+01 0.  1.
<mgrwt>
<rscale>  0 0.27118594E+01</rscale>
<asrwt>0</asrwt>
<pdfrwt beam="1">0</pdfrwt>
<pdfrwt beam="2">0</pdfrwt>
<totfact> 0.13366854E+12</totfact>
</mgrwt>
</event>
<event>
 4    1  0.1750553E+006  0.3010765E+01  0.7546771E-02  0.2518789E+00
         22   -1    0    0    0    0  0.00000000000E+00  0.00000000000E+00  0.21696391022E+01  0.21696391022E+01  0.00000000000E+00 0. -1.
         22   -1    0    0    0    0 -0.00000000000E+00 -0.00000000000E+00 -0.69229460078E+01  0.69229460078E+01  0.00000000000E+00 0.  1.
          4    1    1    2  501    0  0.10357418145E+01  0.25256770865E+01  0.48607727071E+00  0.30497503118E+01  0.12700000000E+01 0. -1.
         -4    1    1    2    0  501 -0.10357418145E+01 -0.25256770865E+01 -0.52393841762E+01  0.60428347981E+01  0.12700000000E+01 0.  1.
<mgrwt>
<rscale>  0 0.30107650E+01</rscale>
<asrwt>0</asrwt>
<pdfrwt beam="1">0</pdfrwt>
<pdfrwt beam="2">0</pdfrwt>
<totfact> 0.10132167E+12</totfact>
</mgrwt>
</event>
<event>
 4    1  0.1750553E+006  0.2285290E+01  0.7546771E-02  0.2811490E+00
         22   -1    0    0    0    0  0.00000000000E+00  0.00000000000E+00  0.15260633571E+02  0.15260633571E+02  0.00000000000E+00 0. -1.
         22   -1    0    0    0    0 -0.00000000000E+00 -0.00000000000E+00 -0.57118926385E+00  0.57118926385E+00  0.00000000000E+00 0. -1.
          4    1    1    2  501    0  0.64323633259E+00  0.17877073369E+01  0.12356548232E+02  0.12566098627E+02  0.12700000000E+01 0. -1.
         -4    1    1    2    0  501 -0.64323633259E+00 -0.17877073369E+01  0.23328960750E+01  0.32657242074E+01  0.12700000000E+01 0. -1.
<mgrwt>
<rscale>  0 0.22852900E+01</rscale>
<asrwt>0</asrwt>
<pdfrwt beam="1">0</pdfrwt>
<pdfrwt beam="2">0</pdfrwt>
<totfact> 0.17899006E+12</totfact>
</mgrwt>
</event>
<event>
 4    1  0.1750553E+006  0.2422611E+01  0.7546771E-02  0.2743664E+00
         22   -1    0    0    0    0  0.00000000000E+00  0.00000000000E+00  0.29109254502E+01  0.29109254502E+01  0.00000000000E+00 0.  1.
         22   -1    0    0    0    0 -0.00000000000E+00 -0.00000000000E+00 -0.21741350074E+01  0.21741350074E+01  0.00000000000E+00 0.  1.
          4    1    1    2  501    0 -0.85396895854E+00 -0.18779986256E+01 -0.31685005086E+00  0.24432428808E+01  0.12700000000E+01 0.  1.
         -4    1    1    2    0  501  0.85396895854E+00  0.18779986256E+01  0.10536404936E+01  0.26418175769E+01  0.12700000000E+01 0.  1.
<mgrwt>
<rscale>  0 0.24226105E+01</rscale>
<asrwt>0</asrwt>
<pdfrwt beam="1">0</pdfrwt>
<pdfrwt beam="2">0</pdfrwt>
<totfact> 0.28114603E+12</totfact>
</mgrwt>
</event>
<event>
 4    1  0.1750553E+006  0.3015061E+01  0.7546771E-02  0.2517442E+00
         22   -1    0    0    0    0  0.00000000000E+00  0.00000000000E+00  0.77531877970E+01  0.77531877970E+01  0.00000000000E+00 0.  1.
         22   -1    0    0    0    0 -0.00000000000E+00 -0.00000000000E+00 -0.15441454355E+01  0.15441454355E+01  0.00000000000E+00 0.  1.
          4    1    1    2  501    0 -0.24161470950E+00  0.27238422020E+01  0.53851263794E+01  0.61717242430E+01  0.12700000000E+01 0.  1.
         -4    1    1    2    0  501  0.24161470950E+00 -0.27238422020E+01  0.82391598217E+00  0.31256089895E+01  0.12700000000E+01 0.  1.
<mgrwt>
<rscale>  0 0.30150612E+01</rscale>
<asrwt>0</asrwt>
<pdfrwt beam="1">0</pdfrwt>
<pdfrwt beam="2">0</pdfrwt>
<totfact> 0.13104410E+12</totfact>
</mgrwt>
</event>
<event>
 4    1  0.1750553E+006  0.2617968E+01  0.7546771E-02  0.2658701E+00
         22   -1    0    0    0    0  0.00000000000E+00  0.00000000000E+00  0.56986623691E+01  0.56986623691E+01  0.00000000000E+00 0. -1.
         22   -1    0    0    0    0 -0.00000000000E+00 -0.00000000000E+00 -0.17675374729E+01  0.17675374729E+01  0.00000000000E+00 0. -1.
          4    1    1    2  501    0 -0.98328073246E+00  0.20673686215E+01  0.40758852244E+01  0.48442331053E+01  0.12700000000E+01 0. -1.
         -4    1    1    2    0  501  0.98328073246E+00 -0.20673686215E+01 -0.14476032813E+00  0.26219667367E+01  0.12700000000E+01 0. -1.
<mgrwt>
<rscale>  0 0.26179675E+01</rscale>
<asrwt>0</asrwt>
<pdfrwt beam="1">0</pdfrwt>
<pdfrwt beam="2">0</pdfrwt>
<totfact> 0.16197160E+12</totfact>
</mgrwt>
</event>
<event>
 4    1  0.1750553E+006  0.4219088E+01  0.7546771E-02  0.2237274E+00
         22   -1    0    0    0    0  0.00000000000E+00  0.00000000000E+00  0.99081546812E+01  0.99081546812E+01  0.00000000000E+00 0.  1.
         22   -1    0    0    0    0 -0.00000000000E+00 -0.00000000000E+00 -0.64321564057E+01  0.64321564057E+01  0.00000000000E+00 0. -1.
          4    1    1    2  501    0  0.62486813656E+00 -0.39745869117E+01  0.86739232018E+01  0.96456023668E+01  0.12700000000E+01 0.  1.
         -4    1    1    2    0  501 -0.62486813656E+00  0.39745869117E+01 -0.51979249264E+01  0.66947087201E+01  0.12700000000E+01 0. -1.
<mgrwt>
<rscale>  0 0.42190877E+01</rscale>
<asrwt>0</asrwt>
<pdfrwt beam="1">0</pdfrwt>
<pdfrwt beam="2">0</pdfrwt>
<totfact> 0.18355660E+11</totfact>
</mgrwt>
</event>
<event>
 4    1  0.1750553E+006  0.2263520E+01  0.7546771E-02  0.2822958E+00
         22   -1    0    0    0    0  0.00000000000E+00  0.00000000000E+00  0.10047390112E+01  0.10047390112E+01  0.00000000000E+00 0.  1.
         22   -1    0    0    0    0 -0.00000000000E+00 -0.00000000000E+00 -0.54738669563E+01  0.54738669563E+01  0.00000000000E+00 0. -1.
          4    1    1    2  501    0  0.17027596321E+01  0.78181226842E+00 -0.30818642737E+01  0.38237949983E+01  0.12700000000E+01 0. -1.
         -4    1    1    2    0  501 -0.17027596321E+01 -0.78181226842E+00 -0.13872636714E+01  0.26548109691E+01  0.12700000000E+01 0.  1.
<mgrwt>
<rscale>  0 0.22635196E+01</rscale>
<asrwt>0</asrwt>
<pdfrwt beam="1">0</pdfrwt>
<pdfrwt beam="2">0</pdfrwt>
<totfact> 0.32495753E+12</totfact>
</mgrwt>
</event>
<event>
 4    1  0.1750553E+006  0.2079300E+01  0.7546771E-02  0.2929180E+00
         22   -1    0    0    0    0  0.00000000000E+00  0.00000000000E+00  0.22561278215E+02  0.22561278215E+02  0.00000000000E+00 0. -1.
         22   -1    0    0    0    0 -0.00000000000E+00 -0.00000000000E+00 -0.21165849306E+00  0.21165849306E+00  0.00000000000E+00 0. -1.
          4    1    1    2  501    0  0.56245188150E+00 -0.15473316662E+01  0.14677178478E+02  0.14823732845E+02  0.12700000000E+01 0. -1.
         -4    1    1    2    0  501 -0.56245188150E+00  0.15473316662E+01  0.76724412440E+01  0.79492038624E+01  0.12700000000E+01 0. -1.
<mgrwt>
<rscale>  0 0.20792997E+01</rscale>
<asrwt>0</asrwt>
<pdfrwt beam="1">0</pdfrwt>
<pdfrwt beam="2">0</pdfrwt>
<totfact> 0.33592733E+12</totfact>
</mgrwt>
</event>
<event>
 4    1  0.1750553E+006  0.2155337E+01  0.7546771E-02  0.2883219E+00
         22   -1    0    0    0    0  0.00000000000E+00  0.00000000000E+00  0.87062685110E+02  0.87062685110E+02  0.00000000000E+00 0. -1.
         22   -1    0    0    0    0 -0.00000000000E+00 -0.00000000000E+00 -0.90208143724E+00  0.90208143724E+00  0.00000000000E+00 0.  1.
          4    1    1    2  501    0 -0.68711642548E+00 -0.16001399918E+01  0.85742086948E+02  0.85769172499E+02  0.12700000000E+01 0. -1.
         -4    1    1    2    0  501  0.68711642548E+00  0.16001399918E+01  0.41851672476E+00  0.21955940482E+01  0.12700000000E+01 0.  1.
<mgrwt>
<rscale>  0 0.21553369E+01</rscale>
<asrwt>0</asrwt>
<pdfrwt beam="1">0</pdfrwt>
<pdfrwt beam="2">0</pdfrwt>
<totfact> 0.11149433E+11</totfact>
</mgrwt>
</event>
<event>
 4    1  0.1750553E+006  0.2207523E+01  0.7546771E-02  0.2853444E+00
         22   -1    0    0    0    0  0.00000000000E+00  0.00000000000E+00  0.19870551336E+01  0.19870551336E+01  0.00000000000E+00 0. -1.
         22   -1    0    0    0    0 -0.00000000000E+00 -0.00000000000E+00 -0.28599286018E+01  0.28599286018E+01  0.00000000000E+00 0.  1.
          4    1    1    2  501    0 -0.17535054040E+01 -0.43066781346E+00  0.47834119162E+00  0.22587532541E+01  0.12700000000E+01 0. -1.
         -4    1    1    2    0  501  0.17535054040E+01  0.43066781346E+00 -0.13512146599E+01  0.25882304813E+01  0.12700000000E+01 0.  1.
<mgrwt>
<rscale>  0 0.22075226E+01</rscale>
<asrwt>0</asrwt>
<pdfrwt beam="1">0</pdfrwt>
<pdfrwt beam="2">0</pdfrwt>
<totfact> 0.31852573E+12</totfact>
</mgrwt>
</event>
<event>
 4    1  0.1750553E+006  0.2834144E+01  0.7546771E-02  0.2577341E+00
         22   -1    0    0    0    0  0.00000000000E+00  0.00000000000E+00  0.20068347312E+02  0.20068347312E+02  0.00000000000E+00 0. -1.
         22   -1    0    0    0    0 -0.00000000000E+00 -0.00000000000E+00 -0.43679894563E+00  0.43679894563E+00  0.00000000000E+00 0.  1.
          4    1    1    2  501    0  0.10241186166E+01  0.23174668648E+01  0.12781458314E+02  0.13091907739E+02  0.12700000000E+01 0.  1.
         -4    1    1    2    0  501 -0.10241186166E+01 -0.23174668648E+01  0.68500900520E+01  0.74132385184E+01  0.12700000000E+01 0. -1.
<mgrwt>
<rscale>  0 0.28341439E+01</rscale>
<asrwt>0</asrwt>
<pdfrwt beam="1">0</pdfrwt>
<pdfrwt beam="2">0</pdfrwt>
<totfact> 0.17258960E+12</totfact>
</mgrwt>
</event>
<event>
 4    1  0.1750553E+006  0.2191409E+01  0.7546771E-02  0.2862492E+00
         22   -1    0    0    0    0  0.00000000000E+00  0.00000000000E+00  0.69686889226E+00  0.69686889226E+00  0.00000000000E+00 0. -1.
         22   -1    0    0    0    0 -0.00000000000E+00 -0.00000000000E+00 -0.91112259409E+01  0.91112259409E+01  0.00000000000E+00 0.  1.
          4    1    1    2  501    0 -0.76769027782E+00  0.16124593733E+01 -0.66278941724E+01  0.69807775179E+01  0.12700000000E+01 0.  1.
         -4    1    1    2    0  501  0.76769027782E+00 -0.16124593733E+01 -0.17864628762E+01  0.28273173153E+01  0.12700000000E+01 0. -1.
<mgrwt>
<rscale>  0 0.21914090E+01</rscale>
<asrwt>0</asrwt>
<pdfrwt beam="1">0</pdfrwt>
<pdfrwt beam="2">0</pdfrwt>
<totfact> 0.26787378E+12</totfact>
</mgrwt>
</event>
<event>
 4    1  0.1750553E+006  0.3291703E+01  0.7546771E-02  0.2437329E+00
         22   -1    0    0    0    0  0.00000000000E+00  0.00000000000E+00  0.16936859345E+01  0.16936859345E+01  0.00000000000E+00 0.  1.
         22   -1    0    0    0    0 -0.00000000000E+00 -0.00000000000E+00 -0.10156477682E+02  0.10156477682E+02  0.00000000000E+00 0.  1.
          4    1    1    2  501    0 -0.21902866561E+01 -0.21035813945E+01 -0.62677813594E+00  0.33508448414E+01  0.12700000000E+01 0.  1.
         -4    1    1    2    0  501  0.21902866561E+01  0.21035813945E+01 -0.78360136119E+01  0.84993187754E+01  0.12700000000E+01 0.  1.
<mgrwt>
<rscale>  0 0.32917033E+01</rscale>
<asrwt>0</asrwt>
<pdfrwt beam="1">0</pdfrwt>
<pdfrwt beam="2">0</pdfrwt>
<totfact> 0.85068092E+11</totfact>
</mgrwt>
</event>
<event>
 4    1  0.1750553E+006  0.2945479E+01  0.7546771E-02  0.2539695E+00
         22   -1    0    0    0    0  0.00000000000E+00  0.00000000000E+00  0.73495703375E+00  0.73495703375E+00  0.00000000000E+00 0. -1.
         22   -1    0    0    0    0 -0.00000000000E+00 -0.00000000000E+00 -0.28092007544E+02  0.28092007544E+02  0.00000000000E+00 0.  1.
          4    1    1    2  501    0 -0.72496718187E+00 -0.25568280737E+01 -0.27035387574E+01  0.39981206868E+01  0.12700000000E+01 0. -1.
         -4    1    1    2    0  501  0.72496718187E+00  0.25568280737E+01 -0.24653511753E+02  0.24828843891E+02  0.12700000000E+01 0.  1.
<mgrwt>
<rscale>  0 0.29454791E+01</rscale>
<asrwt>0</asrwt>
<pdfrwt beam="1">0</pdfrwt>
<pdfrwt beam="2">0</pdfrwt>
<totfact> 0.62744207E+11</totfact>
</mgrwt>
</event>
<event>
 4    1  0.1750553E+006  0.2323220E+01  0.7546771E-02  0.2791999E+00
         22   -1    0    0    0    0  0.00000000000E+00  0.00000000000E+00  0.34170460658E+01  0.34170460658E+01  0.00000000000E+00 0.  1.
         22   -1    0    0    0    0 -0.00000000000E+00 -0.00000000000E+00 -0.18631476367E+01  0.18631476367E+01  0.00000000000E+00 0.  1.
          4    1    1    2  501    0  0.26083479950E+00 -0.19278009749E+01  0.18069968863E+01  0.29432276736E+01  0.12700000000E+01 0.  1.
         -4    1    1    2    0  501 -0.26083479950E+00  0.19278009749E+01 -0.25309845714E+00  0.23369660290E+01  0.12700000000E+01 0.  1.
<mgrwt>
<rscale>  0 0.23232200E+01</rscale>
<asrwt>0</asrwt>
<pdfrwt beam="1">0</pdfrwt>
<pdfrwt beam="2">0</pdfrwt>
<totfact> 0.27867854E+12</totfact>
</mgrwt>
</event>
<event>
 4    1  0.1750553E+006  0.2571941E+01  0.7546771E-02  0.2677639E+00
         22   -1    0    0    0    0  0.00000000000E+00  0.00000000000E+00  0.45515326803E+02  0.45515326803E+02  0.00000000000E+00 0.  1.
         22   -1    0    0    0    0 -0.00000000000E+00 -0.00000000000E+00 -0.47536646322E+00  0.47536646322E+00  0.00000000000E+00 0. -1.
          4    1    1    2  501    0  0.15268573660E+01  0.16342229795E+01  0.41680385458E+02  0.41759662476E+02  0.12700000000E+01 0.  1.
         -4    1    1    2    0  501 -0.15268573660E+01 -0.16342229795E+01  0.33595748813E+01  0.42310307900E+01  0.12700000000E+01 0. -1.
<mgrwt>
<rscale>  0 0.25719405E+01</rscale>
<asrwt>0</asrwt>
<pdfrwt beam="1">0</pdfrwt>
<pdfrwt beam="2">0</pdfrwt>
<totfact> 0.55172611E+11</totfact>
</mgrwt>
</event>
<event>
 4    1  0.1750553E+006  0.2250290E+01  0.7546771E-02  0.2830029E+00
         22   -1    0    0    0    0  0.00000000000E+00  0.00000000000E+00  0.43467432357E+00  0.43467432357E+00  0.00000000000E+00 0. -1.
         22   -1    0    0    0    0 -0.00000000000E+00 -0.00000000000E+00 -0.11730089897E+02  0.11730089897E+02  0.00000000000E+00 0.  1.
          4    1    1    2  501    0  0.18011105606E+01  0.45487037149E+00 -0.61513739811E+01  0.65500540580E+01  0.12700000000E+01 0.  1.
         -4    1    1    2    0  501 -0.18011105606E+01 -0.45487037149E+00 -0.51440415920E+01  0.56147101623E+01  0.12700000000E+01 0. -1.
<mgrwt>
<rscale>  0 0.22502903E+01</rscale>
<asrwt>0</asrwt>
<pdfrwt beam="1">0</pdfrwt>
<pdfrwt beam="2">0</pdfrwt>
<totfact> 0.33629623E+12</totfact>
</mgrwt>
</event>
<event>
 4    1  0.1750553E+006  0.2445757E+01  0.7546771E-02  0.2732938E+00
         22   -1    0    0    0    0  0.00000000000E+00  0.00000000000E+00  0.21917561735E+01  0.21917561735E+01  0.00000000000E+00 0. -1.
         22   -1    0    0    0    0 -0.00000000000E+00 -0.00000000000E+00 -0.27412339646E+01  0.27412339646E+01  0.00000000000E+00 0.  1.
          4    1    1    2  501    0  0.16392021439E+01  0.12968596643E+01 -0.43819936099E+00  0.24847026658E+01  0.12700000000E+01 0.  1.
         -4    1    1    2    0  501 -0.16392021439E+01 -0.12968596643E+01 -0.11127843017E+00  0.24482874722E+01  0.12700000000E+01 0.  1.
<mgrwt>
<rscale>  0 0.24457573E+01</rscale>
<asrwt>0</asrwt>
<pdfrwt beam="1">0</pdfrwt>
<pdfrwt beam="2">0</pdfrwt>
<totfact> 0.29874166E+12</totfact>
</mgrwt>
</event>
<event>
 4    1  0.1750553E+006  0.2032582E+01  0.7546771E-02  0.2959073E+00
         22   -1    0    0    0    0  0.00000000000E+00  0.00000000000E+00  0.24064275534E+01  0.24064275534E+01  0.00000000000E+00 0.  1.
         22   -1    0    0    0    0 -0.00000000000E+00 -0.00000000000E+00 -0.26442852686E+01  0.26442852686E+01  0.00000000000E+00 0. -1.
          4    1    1    2  501    0 -0.15352311984E+01  0.40193989018E+00  0.13766818497E+01  0.24549222845E+01  0.12700000000E+01 0.  1.
         -4    1    1    2    0  501  0.15352311984E+01 -0.40193989018E+00 -0.16145395649E+01  0.25957905375E+01  0.12700000000E+01 0. -1.
<mgrwt>
<rscale>  0 0.20325822E+01</rscale>
<asrwt>0</asrwt>
<pdfrwt beam="1">0</pdfrwt>
<pdfrwt beam="2">0</pdfrwt>
<totfact> 0.27949260E+12</totfact>
</mgrwt>
</event>
<event>
 4    1  0.1750553E+006  0.2236096E+01  0.7546771E-02  0.2837706E+00
         22   -1    0    0    0    0  0.00000000000E+00  0.00000000000E+00  0.43956202850E+01  0.43956202850E+01  0.00000000000E+00 0. -1.
         22   -1    0    0    0    0 -0.00000000000E+00 -0.00000000000E+00 -0.14925935351E+01  0.14925935351E+01  0.00000000000E+00 0.  1.
          4    1    1    2  501    0  0.13960633083E+00  0.18351395937E+01  0.28874622948E+01  0.36520632196E+01  0.12700000000E+01 0.  1.
         -4    1    1    2    0  501 -0.13960633083E+00 -0.18351395937E+01  0.15564455090E-01  0.22361506005E+01  0.12700000000E+01 0. -1.
<mgrwt>
<rscale>  0 0.22360964E+01</rscale>
<asrwt>0</asrwt>
<pdfrwt beam="1">0</pdfrwt>
<pdfrwt beam="2">0</pdfrwt>
<totfact> 0.26763996E+12</totfact>
</mgrwt>
</event>
<event>
 4    1  0.1750553E+006  0.2041562E+01  0.7546771E-02  0.2953224E+00
         22   -1    0    0    0    0  0.00000000000E+00  0.00000000000E+00  0.96059326385E-01  0.96059326385E-01  0.00000000000E+00 0. -1.
         22   -1    0    0    0    0 -0.00000000000E+00 -0.00000000000E+00 -0.49177410942E+02  0.49177410942E+02  0.00000000000E+00 0.  1.
          4    1    1    2  501    0 -0.84507982249E+00 -0.13568030360E+01 -0.32992647327E+02  0.33055752178E+02  0.12700000000E+01 0.  1.
         -4    1    1    2    0  501  0.84507982249E+00  0.13568030360E+01 -0.16088704289E+02  0.16217718091E+02  0.12700000000E+01 0. -1.
<mgrwt>
<rscale>  0 0.20415618E+01</rscale>
<asrwt>0</asrwt>
<pdfrwt beam="1">0</pdfrwt>
<pdfrwt beam="2">0</pdfrwt>
<totfact> 0.29725481E+12</totfact>
</mgrwt>
</event>
<event>
 4    1  0.1750553E+006  0.2458787E+01  0.7546771E-02  0.2726983E+00
         22   -1    0    0    0    0  0.00000000000E+00  0.00000000000E+00  0.10192702558E+01  0.10192702558E+01  0.00000000000E+00 0. -1.
         22   -1    0    0    0    0 -0.00000000000E+00 -0.00000000000E+00 -0.72817403830E+01  0.72817403830E+01  0.00000000000E+00 0.  1.
          4    1    1    2  501    0  0.12307383623E+01 -0.17082207195E+01 -0.13438620061E+01  0.28020706690E+01  0.12700000000E+01 0. -1.
         -4    1    1    2    0  501 -0.12307383623E+01  0.17082207195E+01 -0.49186081211E+01  0.54989399698E+01  0.12700000000E+01 0.  1.
<mgrwt>
<rscale>  0 0.24587873E+01</rscale>
<asrwt>0</asrwt>
<pdfrwt beam="1">0</pdfrwt>
<pdfrwt beam="2">0</pdfrwt>
<totfact> 0.22747782E+12</totfact>
</mgrwt>
</event>
<event>
 4    1  0.1750553E+006  0.2153045E+01  0.7546771E-02  0.2884558E+00
         22   -1    0    0    0    0  0.00000000000E+00  0.00000000000E+00  0.17376495154E+02  0.17376495154E+02  0.00000000000E+00 0. -1.
         22   -1    0    0    0    0 -0.00000000000E+00 -0.00000000000E+00 -0.27453564506E+00  0.27453564506E+00  0.00000000000E+00 0.  1.
          4    1    1    2  501    0  0.99716000157E+00  0.14242106374E+01  0.10034886135E+02  0.10263261848E+02  0.12700000000E+01 0. -1.
         -4    1    1    2    0  501 -0.99716000157E+00 -0.14242106374E+01  0.70670733737E+01  0.73877689513E+01  0.12700000000E+01 0.  1.
<mgrwt>
<rscale>  0 0.21530453E+01</rscale>
<asrwt>0</asrwt>
<pdfrwt beam="1">0</pdfrwt>
<pdfrwt beam="2">0</pdfrwt>
<totfact> 0.34777628E+12</totfact>
</mgrwt>
</event>
<event>
 4    1  0.1750553E+006  0.8171671E+01  0.7546771E-02  0.1866522E+00
         22   -1    0    0    0    0  0.00000000000E+00  0.00000000000E+00  0.14033480454E+02  0.14033480454E+02  0.00000000000E+00 0. -1.
         22   -1    0    0    0    0 -0.00000000000E+00 -0.00000000000E+00 -0.60208917132E+01  0.60208917132E+01  0.00000000000E+00 0.  1.
          4    1    1    2  501    0 -0.80363950133E+01 -0.76135768866E+00  0.85979737070E+01  0.11861760502E+02  0.12700000000E+01 0. -1.
         -4    1    1    2    0  501  0.80363950133E+01  0.76135768866E+00 -0.58538496611E+00  0.81926116653E+01  0.12700000000E+01 0.  1.
<mgrwt>
<rscale>  0 0.81716712E+01</rscale>
<asrwt>0</asrwt>
<pdfrwt beam="1">0</pdfrwt>
<pdfrwt beam="2">0</pdfrwt>
<totfact> 0.12994212E+11</totfact>
</mgrwt>
</event>
<event>
 4    1  0.1750553E+006  0.2016034E+01  0.7546771E-02  0.2969986E+00
         22   -1    0    0    0    0  0.00000000000E+00  0.00000000000E+00  0.15482053939E+02  0.15482053939E+02  0.00000000000E+00 0. -1.
         22   -1    0    0    0    0 -0.00000000000E+00 -0.00000000000E+00 -0.13053279743E+01  0.13053279743E+01  0.00000000000E+00 0. -1.
          4    1    1    2  501    0 -0.11440985331E+01 -0.10688921797E+01  0.14590668462E+02  0.14729290482E+02  0.12700000000E+01 0. -1.
         -4    1    1    2    0  501  0.11440985331E+01  0.10688921797E+01 -0.41394249771E+00  0.20580914306E+01  0.12700000000E+01 0. -1.
<mgrwt>
<rscale>  0 0.20160337E+01</rscale>
<asrwt>0</asrwt>
<pdfrwt beam="1">0</pdfrwt>
<pdfrwt beam="2">0</pdfrwt>
<totfact> 0.68577145E+11</totfact>
</mgrwt>
</event>
<event>
 4    1  0.1750553E+006  0.2844823E+01  0.7546771E-02  0.2573615E+00
         22   -1    0    0    0    0  0.00000000000E+00  0.00000000000E+00  0.11401158094E+02  0.11401158094E+02  0.00000000000E+00 0.  1.
         22   -1    0    0    0    0 -0.00000000000E+00 -0.00000000000E+00 -0.97861409441E+00  0.97861409441E+00  0.00000000000E+00 0. -1.
          4    1    1    2  501    0  0.25195799440E+01  0.36308715709E+00  0.84551865121E+01  0.89209413367E+01  0.12700000000E+01 0.  1.
         -4    1    1    2    0  501 -0.25195799440E+01 -0.36308715709E+00  0.19673574876E+01  0.34588308519E+01  0.12700000000E+01 0.  1.
<mgrwt>
<rscale>  0 0.28448226E+01</rscale>
<asrwt>0</asrwt>
<pdfrwt beam="1">0</pdfrwt>
<pdfrwt beam="2">0</pdfrwt>
<totfact> 0.13871332E+12</totfact>
</mgrwt>
</event>
<event>
 4    1  0.1750553E+006  0.6877423E+01  0.7546771E-02  0.1948916E+00
         22   -1    0    0    0    0  0.00000000000E+00  0.00000000000E+00  0.96281507729E+00  0.96281507729E+00  0.00000000000E+00 0. -1.
         22   -1    0    0    0    0 -0.00000000000E+00 -0.00000000000E+00 -0.54302196945E+02  0.54302196945E+02  0.00000000000E+00 0.  1.
          4    1    1    2  501    0 -0.58480267172E+01  0.33891937302E+01 -0.18138097239E+02  0.19398183474E+02  0.12700000000E+01 0. -1.
         -4    1    1    2    0  501  0.58480267172E+01 -0.33891937302E+01 -0.35201284628E+02  0.35866828548E+02  0.12700000000E+01 0.  1.
<mgrwt>
<rscale>  0 0.68774233E+01</rscale>
<asrwt>0</asrwt>
<pdfrwt beam="1">0</pdfrwt>
<pdfrwt beam="2">0</pdfrwt>
<totfact> 0.19629009E+11</totfact>
</mgrwt>
</event>
<event>
 4    1  0.1750553E+006  0.4938576E+01  0.7546771E-02  0.2130408E+00
         22   -1    0    0    0    0  0.00000000000E+00  0.00000000000E+00  0.97342016421E+01  0.97342016421E+01  0.00000000000E+00 0. -1.
         22   -1    0    0    0    0 -0.00000000000E+00 -0.00000000000E+00 -0.28535276463E+01  0.28535276463E+01  0.00000000000E+00 0.  1.
          4    1    1    2  501    0 -0.47724553593E+01 -0.17420474456E-01  0.56382056153E+01  0.74952582471E+01  0.12700000000E+01 0. -1.
         -4    1    1    2    0  501  0.47724553593E+01  0.17420474456E-01  0.12424683805E+01  0.50924710413E+01  0.12700000000E+01 0.  1.
<mgrwt>
<rscale>  0 0.49385761E+01</rscale>
<asrwt>0</asrwt>
<pdfrwt beam="1">0</pdfrwt>
<pdfrwt beam="2">0</pdfrwt>
<totfact> 0.48900837E+11</totfact>
</mgrwt>
</event>
<event>
 4    1  0.1750553E+006  0.2502271E+01  0.7546771E-02  0.2707530E+00
         22   -1    0    0    0    0  0.00000000000E+00  0.00000000000E+00  0.29370564553E+01  0.29370564553E+01  0.00000000000E+00 0.  1.
         22   -1    0    0    0    0 -0.00000000000E+00 -0.00000000000E+00 -0.21905189015E+01  0.21905189015E+01  0.00000000000E+00 0. -1.
          4    1    1    2  501    0 -0.20033845568E+01 -0.79681376338E+00 -0.46311424654E-01  0.25026998629E+01  0.12700000000E+01 0. -1.
         -4    1    1    2    0  501  0.20033845568E+01  0.79681376338E+00  0.79284897846E+00  0.26248754939E+01  0.12700000000E+01 0.  1.
<mgrwt>
<rscale>  0 0.25022713E+01</rscale>
<asrwt>0</asrwt>
<pdfrwt beam="1">0</pdfrwt>
<pdfrwt beam="2">0</pdfrwt>
<totfact> 0.27581807E+12</totfact>
</mgrwt>
</event>
<event>
 4    1  0.1750553E+006  0.2133505E+01  0.7546771E-02  0.2896091E+00
         22   -1    0    0    0    0  0.00000000000E+00  0.00000000000E+00  0.15721028521E+01  0.15721028521E+01  0.00000000000E+00 0.  1.
         22   -1    0    0    0    0 -0.00000000000E+00 -0.00000000000E+00 -0.45015632093E+01  0.45015632093E+01  0.00000000000E+00 0.  1.
          4    1    1    2  501    0  0.16247955376E+01  0.54679258778E+00  0.34926501675E+00  0.21619039583E+01  0.12700000000E+01 0.  1.
         -4    1    1    2    0  501 -0.16247955376E+01 -0.54679258778E+00 -0.32787253739E+01  0.39117621031E+01  0.12700000000E+01 0.  1.
<mgrwt>
<rscale>  0 0.21335048E+01</rscale>
<asrwt>0</asrwt>
<pdfrwt beam="1">0</pdfrwt>
<pdfrwt beam="2">0</pdfrwt>
<totfact> 0.24512625E+12</totfact>
</mgrwt>
</event>
<event>
 4    1  0.1750553E+006  0.2375873E+01  0.7546771E-02  0.2765919E+00
         22   -1    0    0    0    0  0.00000000000E+00  0.00000000000E+00  0.16095324408E+01  0.16095324408E+01  0.00000000000E+00 0.  1.
         22   -1    0    0    0    0 -0.00000000000E+00 -0.00000000000E+00 -0.45708186116E+01  0.45708186116E+01  0.00000000000E+00 0. -1.
          4    1    1    2  501    0  0.15887218245E+01  0.12279397249E+01  0.10096709244E-01  0.23758945573E+01  0.12700000000E+01 0.  1.
         -4    1    1    2    0  501 -0.15887218245E+01 -0.12279397249E+01 -0.29713828800E+01  0.38044564951E+01  0.12700000000E+01 0. -1.
<mgrwt>
<rscale>  0 0.23758731E+01</rscale>
<asrwt>0</asrwt>
<pdfrwt beam="1">0</pdfrwt>
<pdfrwt beam="2">0</pdfrwt>
<totfact> 0.23431877E+12</totfact>
</mgrwt>
</event>
<event>
 4    1  0.1750553E+006  0.2486539E+01  0.7546771E-02  0.2714495E+00
         22   -1    0    0    0    0  0.00000000000E+00  0.00000000000E+00  0.40555916087E+00  0.40555916087E+00  0.00000000000E+00 0.  1.
         22   -1    0    0    0    0 -0.00000000000E+00 -0.00000000000E+00 -0.15245904073E+02  0.15245904073E+02  0.00000000000E+00 0.  1.
          4    1    1    2  501    0 -0.21116112272E+01 -0.33327520592E+00 -0.73712417346E+01  0.77793366715E+01  0.12700000000E+01 0.  1.
         -4    1    1    2    0  501  0.21116112272E+01  0.33327520592E+00 -0.74691031771E+01  0.78721265620E+01  0.12700000000E+01 0.  1.
<mgrwt>
<rscale>  0 0.24865386E+01</rscale>
<asrwt>0</asrwt>
<pdfrwt beam="1">0</pdfrwt>
<pdfrwt beam="2">0</pdfrwt>
<totfact> 0.26376203E+12</totfact>
</mgrwt>
</event>
<event>
 4    1  0.1750553E+006  0.2311010E+01  0.7546771E-02  0.2798207E+00
         22   -1    0    0    0    0  0.00000000000E+00  0.00000000000E+00  0.28721298074E+00  0.28721298074E+00  0.00000000000E+00 0.  1.
         22   -1    0    0    0    0 -0.00000000000E+00 -0.00000000000E+00 -0.18663791548E+02  0.18663791548E+02  0.00000000000E+00 0. -1.
          4    1    1    2  501    0  0.16543907435E+01  0.99541809826E+00 -0.86136123432E+01  0.89182444193E+01  0.12700000000E+01 0. -1.
         -4    1    1    2    0  501 -0.16543907435E+01 -0.99541809826E+00 -0.97629662242E+01  0.10032760110E+02  0.12700000000E+01 0.  1.
<mgrwt>
<rscale>  0 0.23110097E+01</rscale>
<asrwt>0</asrwt>
<pdfrwt beam="1">0</pdfrwt>
<pdfrwt beam="2">0</pdfrwt>
<totfact> 0.30257967E+12</totfact>
</mgrwt>
</event>
<event>
 4    1  0.1750553E+006  0.2394441E+01  0.7546771E-02  0.2756980E+00
         22   -1    0    0    0    0  0.00000000000E+00  0.00000000000E+00  0.72395303060E+01  0.72395303060E+01  0.00000000000E+00 0.  1.
         22   -1    0    0    0    0 -0.00000000000E+00 -0.00000000000E+00 -0.83333362923E+00  0.83333362923E+00  0.00000000000E+00 0. -1.
          4    1    1    2  501    0  0.22652808151E+00  0.20172088569E+01  0.23035964188E+01  0.33226349491E+01  0.12700000000E+01 0. -1.
         -4    1    1    2    0  501 -0.22652808151E+00 -0.20172088569E+01  0.41026002581E+01  0.47502289862E+01  0.12700000000E+01 0.  1.
<mgrwt>
<rscale>  0 0.23944408E+01</rscale>
<asrwt>0</asrwt>
<pdfrwt beam="1">0</pdfrwt>
<pdfrwt beam="2">0</pdfrwt>
<totfact> 0.28820807E+12</totfact>
</mgrwt>
</event>
<event>
 4    1  0.1750553E+006  0.2619341E+01  0.7546771E-02  0.2658145E+00
         22   -1    0    0    0    0  0.00000000000E+00  0.00000000000E+00  0.15695706624E+01  0.15695706624E+01  0.00000000000E+00 0. -1.
         22   -1    0    0    0    0 -0.00000000000E+00 -0.00000000000E+00 -0.11563238828E+02  0.11563238828E+02  0.00000000000E+00 0.  1.
          4    1    1    2  501    0  0.97598495735E+00  0.20725588880E+01  0.18177523885E+00  0.26256407253E+01  0.12700000000E+01 0. -1.
         -4    1    1    2    0  501 -0.97598495735E+00 -0.20725588880E+01 -0.10175443404E+02  0.10507168765E+02  0.12700000000E+01 0.  1.
<mgrwt>
<rscale>  0 0.26193409E+01</rscale>
<asrwt>0</asrwt>
<pdfrwt beam="1">0</pdfrwt>
<pdfrwt beam="2">0</pdfrwt>
<totfact> 0.79328565E+11</totfact>
</mgrwt>
</event>
<event>
 4    1  0.1750553E+006  0.2176196E+01  0.7546771E-02  0.2871153E+00
         22   -1    0    0    0    0  0.00000000000E+00  0.00000000000E+00  0.52990348992E+01  0.52990348992E+01  0.00000000000E+00 0. -1.
         22   -1    0    0    0    0 -0.00000000000E+00 -0.00000000000E+00 -0.26554361742E+01  0.26554361742E+01  0.00000000000E+00 0.  1.
          4    1    1    2  501    0  0.17640481090E+01 -0.10518065105E+00  0.45613287540E+01  0.50538647293E+01  0.12700000000E+01 0. -1.
         -4    1    1    2    0  501 -0.17640481090E+01  0.10518065105E+00 -0.19177300290E+01  0.29006063442E+01  0.12700000000E+01 0.  1.
<mgrwt>
<rscale>  0 0.21761959E+01</rscale>
<asrwt>0</asrwt>
<pdfrwt beam="1">0</pdfrwt>
<pdfrwt beam="2">0</pdfrwt>
<totfact> 0.11013869E+12</totfact>
</mgrwt>
</event>
<event>
 4    1  0.1750553E+006  0.3143888E+01  0.7546771E-02  0.2478577E+00
         22   -1    0    0    0    0  0.00000000000E+00  0.00000000000E+00  0.22029105580E+01  0.22029105580E+01  0.00000000000E+00 0. -1.
         22   -1    0    0    0    0 -0.00000000000E+00 -0.00000000000E+00 -0.55355438066E+01  0.55355438066E+01  0.00000000000E+00 0.  1.
          4    1    1    2  501    0 -0.12099523677E+01  0.26090511156E+01  0.17820822809E-01  0.31439386186E+01  0.12700000000E+01 0. -1.
         -4    1    1    2    0  501  0.12099523677E+01 -0.26090511156E+01 -0.33504540714E+01  0.45945157460E+01  0.12700000000E+01 0.  1.
<mgrwt>
<rscale>  0 0.31438881E+01</rscale>
<asrwt>0</asrwt>
<pdfrwt beam="1">0</pdfrwt>
<pdfrwt beam="2">0</pdfrwt>
<totfact> 0.12994963E+12</totfact>
</mgrwt>
</event>
<event>
 4    1  0.1750553E+006  0.2031280E+01  0.7546771E-02  0.2959926E+00
         22   -1    0    0    0    0  0.00000000000E+00  0.00000000000E+00  0.28193704809E+00  0.28193704809E+00  0.00000000000E+00 0. -1.
         22   -1    0    0    0    0 -0.00000000000E+00 -0.00000000000E+00 -0.17218071101E+02  0.17218071101E+02  0.00000000000E+00 0.  1.
          4    1    1    2  501    0  0.10390480822E+01 -0.11973205085E+01 -0.50788490039E+01  0.54699912726E+01  0.12700000000E+01 0. -1.
         -4    1    1    2    0  501 -0.10390480822E+01  0.11973205085E+01 -0.11857285049E+02  0.12030016877E+02  0.12700000000E+01 0. -1.
<mgrwt>
<rscale>  0 0.20312797E+01</rscale>
<asrwt>0</asrwt>
<pdfrwt beam="1">0</pdfrwt>
<pdfrwt beam="2">0</pdfrwt>
<totfact> 0.34140343E+12</totfact>
</mgrwt>
</event>
<event>
 4    1  0.1750553E+006  0.2839061E+01  0.7546771E-02  0.2575622E+00
         22   -1    0    0    0    0  0.00000000000E+00  0.00000000000E+00  0.56276908607E+00  0.56276908607E+00  0.00000000000E+00 0.  1.
         22   -1    0    0    0    0 -0.00000000000E+00 -0.00000000000E+00 -0.30314186759E+02  0.30314186759E+02  0.00000000000E+00 0. -1.
          4    1    1    2  501    0  0.22591705795E+01  0.11591020503E+01 -0.36625379876E+01  0.46340537093E+01  0.12700000000E+01 0.  1.
         -4    1    1    2    0  501 -0.22591705795E+01 -0.11591020503E+01 -0.26088879685E+02  0.26242902135E+02  0.12700000000E+01 0. -1.
<mgrwt>
<rscale>  0 0.28390613E+01</rscale>
<asrwt>0</asrwt>
<pdfrwt beam="1">0</pdfrwt>
<pdfrwt beam="2">0</pdfrwt>
<totfact> 0.77076933E+11</totfact>
</mgrwt>
</event>
<event>
 4    1  0.1750553E+006  0.2407916E+01  0.7546771E-02  0.2750574E+00
         22   -1    0    0    0    0  0.00000000000E+00  0.00000000000E+00  0.10026628796E+02  0.10026628796E+02  0.00000000000E+00 0. -1.
         22   -1    0    0    0    0 -0.00000000000E+00 -0.00000000000E+00 -0.20639442324E+01  0.20639442324E+01  0.00000000000E+00 0.  1.
          4    1    1    2  501    0 -0.19629431779E+01  0.57620494332E+00  0.91103139098E+01  0.94231564559E+01  0.12700000000E+01 0. -1.
         -4    1    1    2    0  501  0.19629431779E+01 -0.57620494332E+00 -0.11476293461E+01  0.26674165727E+01  0.12700000000E+01 0.  1.
<mgrwt>
<rscale>  0 0.24079157E+01</rscale>
<asrwt>0</asrwt>
<pdfrwt beam="1">0</pdfrwt>
<pdfrwt beam="2">0</pdfrwt>
<totfact> 0.68750552E+11</totfact>
</mgrwt>
</event>
<event>
 4    1  0.1750553E+006  0.2175520E+01  0.7546771E-02  0.2871540E+00
         22   -1    0    0    0    0  0.00000000000E+00  0.00000000000E+00  0.35699888419E+01  0.35699888419E+01  0.00000000000E+00 0. -1.
         22   -1    0    0    0    0 -0.00000000000E+00 -0.00000000000E+00 -0.16141634260E+01  0.16141634260E+01  0.00000000000E+00 0.  1.
          4    1    1    2  501    0 -0.16664180497E+01  0.58569634301E+00  0.20736001155E+01  0.30054461834E+01  0.12700000000E+01 0.  1.
         -4    1    1    2    0  501  0.16664180497E+01 -0.58569634301E+00 -0.11777469954E+00  0.21787060844E+01  0.12700000000E+01 0. -1.
<mgrwt>
<rscale>  0 0.21755205E+01</rscale>
<asrwt>0</asrwt>
<pdfrwt beam="1">0</pdfrwt>
<pdfrwt beam="2">0</pdfrwt>
<totfact> 0.31238370E+12</totfact>
</mgrwt>
</event>
<event>
 4    1  0.1750553E+006  0.2077234E+01  0.7546771E-02  0.2930474E+00
         22   -1    0    0    0    0  0.00000000000E+00  0.00000000000E+00  0.35551762519E+02  0.35551762519E+02  0.00000000000E+00 0. -1.
         22   -1    0    0    0    0 -0.00000000000E+00 -0.00000000000E+00 -0.57908162905E+00  0.57908162905E+00  0.00000000000E+00 0. -1.
          4    1    1    2  501    0  0.68632338356E+00 -0.14936397230E+01  0.33547408881E+02  0.33611657829E+02  0.12700000000E+01 0. -1.
         -4    1    1    2    0  501 -0.68632338356E+00  0.14936397230E+01  0.14252720091E+01  0.25191863188E+01  0.12700000000E+01 0. -1.
<mgrwt>
<rscale>  0 0.20772336E+01</rscale>
<asrwt>0</asrwt>
<pdfrwt beam="1">0</pdfrwt>
<pdfrwt beam="2">0</pdfrwt>
<totfact> 0.60833747E+11</totfact>
</mgrwt>
</event>
<event>
 4    1  0.1750553E+006  0.2012793E+01  0.7546771E-02  0.2972144E+00
         22   -1    0    0    0    0  0.00000000000E+00  0.00000000000E+00  0.61699715480E+01  0.61699715480E+01  0.00000000000E+00 0.  1.
         22   -1    0    0    0    0 -0.00000000000E+00 -0.00000000000E+00 -0.76876843062E+00  0.76876843062E+00  0.00000000000E+00 0.  1.
          4    1    1    2  501    0  0.25416001273E+00  0.15407261405E+01  0.40256966696E+01  0.45008408134E+01  0.12700000000E+01 0.  1.
         -4    1    1    2    0  501 -0.25416001273E+00 -0.15407261405E+01  0.13755064478E+01  0.24378991652E+01  0.12700000000E+01 0.  1.
<mgrwt>
<rscale>  0 0.20127927E+01</rscale>
<asrwt>0</asrwt>
<pdfrwt beam="1">0</pdfrwt>
<pdfrwt beam="2">0</pdfrwt>
<totfact> 0.38232943E+12</totfact>
</mgrwt>
</event>
<event>
 4    1  0.1750553E+006  0.2316001E+01  0.7546771E-02  0.2795662E+00
         22   -1    0    0    0    0  0.00000000000E+00  0.00000000000E+00  0.57819844515E+02  0.57819844515E+02  0.00000000000E+00 0.  1.
         22   -1    0    0    0    0 -0.00000000000E+00 -0.00000000000E+00 -0.93918252562E-01  0.93918252562E-01  0.00000000000E+00 0. -1.
          4    1    1    2  501    0 -0.18834542624E+01 -0.45117751618E+00  0.25659083753E+02  0.25763393413E+02  0.12700000000E+01 0.  1.
         -4    1    1    2    0  501  0.18834542624E+01  0.45117751618E+00  0.32066842510E+02  0.32150369355E+02  0.12700000000E+01 0. -1.
<mgrwt>
<rscale>  0 0.23160011E+01</rscale>
<asrwt>0</asrwt>
<pdfrwt beam="1">0</pdfrwt>
<pdfrwt beam="2">0</pdfrwt>
<totfact> 0.24591827E+12</totfact>
</mgrwt>
</event>
<event>
 4    1  0.1750553E+006  0.2107993E+01  0.7546771E-02  0.2911459E+00
         22   -1    0    0    0    0  0.00000000000E+00  0.00000000000E+00  0.99340386228E+01  0.99340386228E+01  0.00000000000E+00 0. -1.
         22   -1    0    0    0    0 -0.00000000000E+00 -0.00000000000E+00 -0.11862976242E+01  0.11862976242E+01  0.00000000000E+00 0. -1.
          4    1    1    2  501    0 -0.75189544996E+00  0.15051202517E+01  0.87622939243E+01  0.90122931907E+01  0.12700000000E+01 0. -1.
         -4    1    1    2    0  501  0.75189544996E+00 -0.15051202517E+01 -0.14552925696E-01  0.21080430564E+01  0.12700000000E+01 0. -1.
<mgrwt>
<rscale>  0 0.21079928E+01</rscale>
<asrwt>0</asrwt>
<pdfrwt beam="1">0</pdfrwt>
<pdfrwt beam="2">0</pdfrwt>
<totfact> 0.13155743E+12</totfact>
</mgrwt>
</event>
<event>
 4    1  0.1750553E+006  0.2003512E+01  0.7546771E-02  0.2978361E+00
         22   -1    0    0    0    0  0.00000000000E+00  0.00000000000E+00  0.29498394473E+00  0.29498394473E+00  0.00000000000E+00 0. -1.
         22   -1    0    0    0    0 -0.00000000000E+00 -0.00000000000E+00 -0.16303922181E+02  0.16303922181E+02  0.00000000000E+00 0. -1.
          4    1    1    2  501    0  0.54355109433E+00 -0.14511075781E+01 -0.46294278409E+01  0.50443694481E+01  0.12700000000E+01 0. -1.
         -4    1    1    2    0  501 -0.54355109433E+00  0.14511075781E+01 -0.11379510395E+02  0.11554536677E+02  0.12700000000E+01 0. -1.
<mgrwt>
<rscale>  0 0.20035122E+01</rscale>
<asrwt>0</asrwt>
<pdfrwt beam="1">0</pdfrwt>
<pdfrwt beam="2">0</pdfrwt>
<totfact> 0.34717279E+12</totfact>
</mgrwt>
</event>
<event>
 4    1  0.1750553E+006  0.2062809E+01  0.7546771E-02  0.2939581E+00
         22   -1    0    0    0    0  0.00000000000E+00  0.00000000000E+00  0.32928667549E+00  0.32928667549E+00  0.00000000000E+00 0. -1.
         22   -1    0    0    0    0 -0.00000000000E+00 -0.00000000000E+00 -0.15296124000E+02  0.15296124000E+02  0.00000000000E+00 0.  1.
          4    1    1    2  501    0 -0.13299552428E+01  0.93461233789E+00 -0.44057355381E+01  0.48647391299E+01  0.12700000000E+01 0. -1.
         -4    1    1    2    0  501  0.13299552428E+01 -0.93461233789E+00 -0.10561101787E+02  0.10760671546E+02  0.12700000000E+01 0.  1.
<mgrwt>
<rscale>  0 0.20628090E+01</rscale>
<asrwt>0</asrwt>
<pdfrwt beam="1">0</pdfrwt>
<pdfrwt beam="2">0</pdfrwt>
<totfact> 0.33200043E+12</totfact>
</mgrwt>
</event>
<event>
 4    1  0.1750553E+006  0.2091962E+01  0.7546771E-02  0.2921301E+00
         22   -1    0    0    0    0  0.00000000000E+00  0.00000000000E+00  0.63673083146E+02  0.63673083146E+02  0.00000000000E+00 0.  1.
         22   -1    0    0    0    0 -0.00000000000E+00 -0.00000000000E+00 -0.10222260228E+00  0.10222260228E+00  0.00000000000E+00 0. -1.
          4    1    1    2  501    0  0.10268152483E+01  0.13073084449E+01  0.50037748967E+02  0.50081459909E+02  0.12700000000E+01 0.  1.
         -4    1    1    2    0  501 -0.10268152483E+01 -0.13073084449E+01  0.13533111577E+02  0.13693845839E+02  0.12700000000E+01 0. -1.
<mgrwt>
<rscale>  0 0.20919620E+01</rscale>
<asrwt>0</asrwt>
<pdfrwt beam="1">0</pdfrwt>
<pdfrwt beam="2">0</pdfrwt>
<totfact> 0.19675802E+12</totfact>
</mgrwt>
</event>
<event>
 4    1  0.1750553E+006  0.2851416E+01  0.7546771E-02  0.2571327E+00
         22   -1    0    0    0    0  0.00000000000E+00  0.00000000000E+00  0.87508885855E+00  0.87508885855E+00  0.00000000000E+00 0.  1.
         22   -1    0    0    0    0 -0.00000000000E+00 -0.00000000000E+00 -0.13606220685E+02  0.13606220685E+02  0.00000000000E+00 0. -1.
          4    1    1    2  501    0  0.24573772617E+01  0.69207837300E+00 -0.22879772873E+01  0.36558741154E+01  0.12700000000E+01 0. -1.
         -4    1    1    2    0  501 -0.24573772617E+01 -0.69207837300E+00 -0.10443154540E+02  0.10825435429E+02  0.12700000000E+01 0.  1.
<mgrwt>
<rscale>  0 0.28514164E+01</rscale>
<asrwt>0</asrwt>
<pdfrwt beam="1">0</pdfrwt>
<pdfrwt beam="2">0</pdfrwt>
<totfact> 0.12697697E+12</totfact>
</mgrwt>
</event>
<event>
 4    1  0.1750553E+006  0.2316960E+01  0.7546771E-02  0.2795174E+00
         22   -1    0    0    0    0  0.00000000000E+00  0.00000000000E+00  0.13253989745E+02  0.13253989745E+02  0.00000000000E+00 0.  1.
         22   -1    0    0    0    0 -0.00000000000E+00 -0.00000000000E+00 -0.43256110121E+00  0.43256110121E+00  0.00000000000E+00 0. -1.
          4    1    1    2  501    0  0.11499196047E+01 -0.15598356909E+01  0.46843642705E+01  0.52260473685E+01  0.12700000000E+01 0. -1.
         -4    1    1    2    0  501 -0.11499196047E+01  0.15598356909E+01  0.81370643731E+01  0.84605034774E+01  0.12700000000E+01 0.  1.
<mgrwt>
<rscale>  0 0.23169597E+01</rscale>
<asrwt>0</asrwt>
<pdfrwt beam="1">0</pdfrwt>
<pdfrwt beam="2">0</pdfrwt>
<totfact> 0.29129474E+12</totfact>
</mgrwt>
</event>
<event>
 4    1  0.1750553E+006  0.3398638E+01  0.7546771E-02  0.2409471E+00
         22   -1    0    0    0    0  0.00000000000E+00  0.00000000000E+00  0.15062913097E+02  0.15062913097E+02  0.00000000000E+00 0. -1.
         22   -1    0    0    0    0 -0.00000000000E+00 -0.00000000000E+00 -0.42816180200E+01  0.42816180200E+01  0.00000000000E+00 0.  1.
          4    1    1    2  501    0 -0.19835306674E+01 -0.24501936981E+01  0.14154067372E+02  0.14556385755E+02  0.12700000000E+01 0. -1.
         -4    1    1    2    0  501  0.19835306674E+01  0.24501936981E+01 -0.33727722944E+01  0.47881453630E+01  0.12700000000E+01 0.  1.
<mgrwt>
<rscale>  0 0.33986384E+01</rscale>
<asrwt>0</asrwt>
<pdfrwt beam="1">0</pdfrwt>
<pdfrwt beam="2">0</pdfrwt>
<totfact> 0.17837994E+11</totfact>
</mgrwt>
</event>
<event>
 4    1  0.1750553E+006  0.2010825E+01  0.7546771E-02  0.2973458E+00
         22   -1    0    0    0    0  0.00000000000E+00  0.00000000000E+00  0.32198067624E+00  0.32198067624E+00  0.00000000000E+00 0.  1.
         22   -1    0    0    0    0 -0.00000000000E+00 -0.00000000000E+00 -0.15560377530E+02  0.15560377530E+02  0.00000000000E+00 0.  1.
          4    1    1    2  501    0  0.49908120720E+00 -0.14769687692E+01 -0.41309224121E+01  0.45943376858E+01  0.12700000000E+01 0.  1.
         -4    1    1    2    0  501 -0.49908120720E+00  0.14769687692E+01 -0.11107474442E+02  0.11288020520E+02  0.12700000000E+01 0.  1.
<mgrwt>
<rscale>  0 0.20108254E+01</rscale>
<asrwt>0</asrwt>
<pdfrwt beam="1">0</pdfrwt>
<pdfrwt beam="2">0</pdfrwt>
<totfact> 0.33335141E+12</totfact>
</mgrwt>
</event>
<event>
 4    1  0.1750553E+006  0.4200327E+01  0.7546771E-02  0.2240562E+00
         22   -1    0    0    0    0  0.00000000000E+00  0.00000000000E+00  0.47438579226E+01  0.47438579226E+01  0.00000000000E+00 0.  1.
         22   -1    0    0    0    0 -0.00000000000E+00 -0.00000000000E+00 -0.49339365628E+01  0.49339365628E+01  0.00000000000E+00 0. -1.
          4    1    1    2  501    0 -0.36264525360E+01 -0.16966690811E+01  0.23060800271E+01  0.47917375824E+01  0.12700000000E+01 0.  1.
         -4    1    1    2    0  501  0.36264525360E+01  0.16966690811E+01 -0.24961586674E+01  0.48860569030E+01  0.12700000000E+01 0. -1.
<mgrwt>
<rscale>  0 0.42003266E+01</rscale>
<asrwt>0</asrwt>
<pdfrwt beam="1">0</pdfrwt>
<pdfrwt beam="2">0</pdfrwt>
<totfact> 0.60681353E+11</totfact>
</mgrwt>
</event>
<event>
 4    1  0.1750553E+006  0.2261896E+01  0.7546771E-02  0.2823821E+00
         22   -1    0    0    0    0  0.00000000000E+00  0.00000000000E+00  0.23573449099E+01  0.23573449099E+01  0.00000000000E+00 0. -1.
         22   -1    0    0    0    0 -0.00000000000E+00 -0.00000000000E+00 -0.50181825446E+01  0.50181825446E+01  0.00000000000E+00 0. -1.
          4    1    1    2  501    0  0.10671280980E+00  0.18686584591E+01  0.14476950571E+01  0.26855154140E+01  0.12700000000E+01 0. -1.
         -4    1    1    2    0  501 -0.10671280980E+00 -0.18686584591E+01 -0.41085326918E+01  0.46900120405E+01  0.12700000000E+01 0. -1.
<mgrwt>
<rscale>  0 0.22618957E+01</rscale>
<asrwt>0</asrwt>
<pdfrwt beam="1">0</pdfrwt>
<pdfrwt beam="2">0</pdfrwt>
<totfact> 0.13493585E+12</totfact>
</mgrwt>
</event>
<event>
 4    1  0.1750553E+006  0.4761017E+01  0.7546771E-02  0.2152658E+00
         22   -1    0    0    0    0  0.00000000000E+00  0.00000000000E+00  0.69854008424E+01  0.69854008424E+01  0.00000000000E+00 0. -1.
         22   -1    0    0    0    0 -0.00000000000E+00 -0.00000000000E+00 -0.32457470079E+01  0.32457470079E+01  0.00000000000E+00 0.  1.
          4    1    1    2  501    0  0.25231587905E+01 -0.38324995690E+01  0.19499401649E+01  0.51448566428E+01  0.12700000000E+01 0.  1.
         -4    1    1    2    0  501 -0.25231587905E+01  0.38324995690E+01  0.17897136696E+01  0.50862912075E+01  0.12700000000E+01 0. -1.
<mgrwt>
<rscale>  0 0.47610170E+01</rscale>
<asrwt>0</asrwt>
<pdfrwt beam="1">0</pdfrwt>
<pdfrwt beam="2">0</pdfrwt>
<totfact> 0.62701441E+11</totfact>
</mgrwt>
</event>
<event>
 4    1  0.1750553E+006  0.3329039E+01  0.7546771E-02  0.2427424E+00
         22   -1    0    0    0    0  0.00000000000E+00  0.00000000000E+00  0.20675415791E+02  0.20675415791E+02  0.00000000000E+00 0.  1.
         22   -1    0    0    0    0 -0.00000000000E+00 -0.00000000000E+00 -0.65527154657E+00  0.65527154657E+00  0.00000000000E+00 0. -1.
          4    1    1    2  501    0  0.30568540128E+01  0.35389983508E+00  0.14559852872E+02  0.14935588947E+02  0.12700000000E+01 0.  1.
         -4    1    1    2    0  501 -0.30568540128E+01 -0.35389983508E+00  0.54602913722E+01  0.63950983901E+01  0.12700000000E+01 0. -1.
<mgrwt>
<rscale>  0 0.33290391E+01</rscale>
<asrwt>0</asrwt>
<pdfrwt beam="1">0</pdfrwt>
<pdfrwt beam="2">0</pdfrwt>
<totfact> 0.10513680E+12</totfact>
</mgrwt>
</event>
<event>
 4    1  0.1750553E+006  0.2193026E+01  0.7546771E-02  0.2861578E+00
         22   -1    0    0    0    0  0.00000000000E+00  0.00000000000E+00  0.64197810833E+00  0.64197810833E+00  0.00000000000E+00 0. -1.
         22   -1    0    0    0    0 -0.00000000000E+00 -0.00000000000E+00 -0.17249056822E+02  0.17249056822E+02  0.00000000000E+00 0.  1.
          4    1    1    2  501    0 -0.16720321353E+01  0.63306487793E+00 -0.15754166346E+01  0.27002407622E+01  0.12700000000E+01 0. -1.
         -4    1    1    2    0  501  0.16720321353E+01 -0.63306487793E+00 -0.15031662079E+02  0.15190794168E+02  0.12700000000E+01 0.  1.
<mgrwt>
<rscale>  0 0.21930259E+01</rscale>
<asrwt>0</asrwt>
<pdfrwt beam="1">0</pdfrwt>
<pdfrwt beam="2">0</pdfrwt>
<totfact> 0.13479375E+12</totfact>
</mgrwt>
</event>
<event>
 4    1  0.1750553E+006  0.3035389E+01  0.7546771E-02  0.2511114E+00
         22   -1    0    0    0    0  0.00000000000E+00  0.00000000000E+00  0.49948593545E+01  0.49948593545E+01  0.00000000000E+00 0. -1.
         22   -1    0    0    0    0 -0.00000000000E+00 -0.00000000000E+00 -0.19071112372E+01  0.19071112372E+01  0.00000000000E+00 0. -1.
          4    1    1    2  501    0  0.37108278852E+00  0.27318464589E+01  0.91915393808E+00  0.31715030306E+01  0.12700000000E+01 0. -1.
         -4    1    1    2    0  501 -0.37108278852E+00 -0.27318464589E+01  0.21685941791E+01  0.37304675611E+01  0.12700000000E+01 0. -1.
<mgrwt>
<rscale>  0 0.30353892E+01</rscale>
<asrwt>0</asrwt>
<pdfrwt beam="1">0</pdfrwt>
<pdfrwt beam="2">0</pdfrwt>
<totfact> 0.17346858E+12</totfact>
</mgrwt>
</event>
<event>
 4    1  0.1750553E+006  0.4054121E+01  0.7546771E-02  0.2267067E+00
         22   -1    0    0    0    0  0.00000000000E+00  0.00000000000E+00  0.58576046806E+00  0.58576046806E+00  0.00000000000E+00 0.  1.
         22   -1    0    0    0    0 -0.00000000000E+00 -0.00000000000E+00 -0.29467914647E+02  0.29467914647E+02  0.00000000000E+00 0. -1.
          4    1    1    2  501    0 -0.31870791639E+01 -0.21599814632E+01 -0.11155402390E+02  0.11869241593E+02  0.12700000000E+01 0.  1.
         -4    1    1    2    0  501  0.31870791639E+01  0.21599814632E+01 -0.17726751789E+02  0.18184433521E+02  0.12700000000E+01 0. -1.
<mgrwt>
<rscale>  0 0.40541206E+01</rscale>
<asrwt>0</asrwt>
<pdfrwt beam="1">0</pdfrwt>
<pdfrwt beam="2">0</pdfrwt>
<totfact> 0.76369384E+11</totfact>
</mgrwt>
</event>
<event>
 4    1  0.1750553E+006  0.2951449E+01  0.7546771E-02  0.2537749E+00
         22   -1    0    0    0    0  0.00000000000E+00  0.00000000000E+00  0.30135640029E+00  0.30135640029E+00  0.00000000000E+00 0.  1.
         22   -1    0    0    0    0 -0.00000000000E+00 -0.00000000000E+00 -0.29681880263E+02  0.29681880263E+02  0.00000000000E+00 0. -1.
          4    1    1    2  501    0 -0.26428809588E+01  0.33664651703E+00 -0.12266663511E+02  0.12616738261E+02  0.12700000000E+01 0.  1.
         -4    1    1    2    0  501  0.26428809588E+01 -0.33664651703E+00 -0.17113860351E+02  0.17366498402E+02  0.12700000000E+01 0. -1.
<mgrwt>
<rscale>  0 0.29514489E+01</rscale>
<asrwt>0</asrwt>
<pdfrwt beam="1">0</pdfrwt>
<pdfrwt beam="2">0</pdfrwt>
<totfact> 0.15997740E+12</totfact>
</mgrwt>
</event>
<event>
 4    1  0.1750553E+006  0.2176890E+01  0.7546771E-02  0.2870755E+00
         22   -1    0    0    0    0  0.00000000000E+00  0.00000000000E+00  0.15252708673E+01  0.15252708673E+01  0.00000000000E+00 0.  1.
         22   -1    0    0    0    0 -0.00000000000E+00 -0.00000000000E+00 -0.31243694364E+01  0.31243694364E+01  0.00000000000E+00 0. -1.
          4    1    1    2  501    0  0.17323415059E+01 -0.35347431638E+00 -0.97343043066E+00  0.23846211416E+01  0.12700000000E+01 0. -1.
         -4    1    1    2    0  501 -0.17323415059E+01  0.35347431638E+00 -0.62566813838E+00  0.22650191621E+01  0.12700000000E+01 0. -1.
<mgrwt>
<rscale>  0 0.21768903E+01</rscale>
<asrwt>0</asrwt>
<pdfrwt beam="1">0</pdfrwt>
<pdfrwt beam="2">0</pdfrwt>
<totfact> 0.38980117E+12</totfact>
</mgrwt>
</event>
<event>
 4    1  0.1750553E+006  0.2317255E+01  0.7546771E-02  0.2795024E+00
         22   -1    0    0    0    0  0.00000000000E+00  0.00000000000E+00  0.49451444289E+02  0.49451444289E+02  0.00000000000E+00 0. -1.
         22   -1    0    0    0    0 -0.00000000000E+00 -0.00000000000E+00 -0.25368403947E+01  0.25368403947E+01  0.00000000000E+00 0.  1.
          4    1    1    2  501    0 -0.11332872002E+01  0.15723959062E+01  0.48889045240E+02  0.48943931322E+02  0.12700000000E+01 0. -1.
         -4    1    1    2    0  501  0.11332872002E+01 -0.15723959062E+01 -0.19744413456E+01  0.30443533618E+01  0.12700000000E+01 0.  1.
<mgrwt>
<rscale>  0 0.23172546E+01</rscale>
<asrwt>0</asrwt>
<pdfrwt beam="1">0</pdfrwt>
<pdfrwt beam="2">0</pdfrwt>
<totfact> 0.72774549E+10</totfact>
</mgrwt>
</event>
<event>
 4    1  0.1750553E+006  0.2221366E+01  0.7546771E-02  0.2845771E+00
         22   -1    0    0    0    0  0.00000000000E+00  0.00000000000E+00  0.34025534634E+00  0.34025534634E+00  0.00000000000E+00 0. -1.
         22   -1    0    0    0    0 -0.00000000000E+00 -0.00000000000E+00 -0.14967621942E+02  0.14967621942E+02  0.00000000000E+00 0.  1.
          4    1    1    2  501    0  0.19345815393E-01 -0.18224141396E+01 -0.86632967924E+01  0.89435551583E+01  0.12700000000E+01 0.  1.
         -4    1    1    2    0  501 -0.19345815393E-01  0.18224141396E+01 -0.59640698034E+01  0.63643221302E+01  0.12700000000E+01 0. -1.
<mgrwt>
<rscale>  0 0.22213661E+01</rscale>
<asrwt>0</asrwt>
<pdfrwt beam="1">0</pdfrwt>
<pdfrwt beam="2">0</pdfrwt>
<totfact> 0.32868877E+12</totfact>
</mgrwt>
</event>
<event>
 4    1  0.1750553E+006  0.2197333E+01  0.7546771E-02  0.2859151E+00
         22   -1    0    0    0    0  0.00000000000E+00  0.00000000000E+00  0.49131574931E+00  0.49131574931E+00  0.00000000000E+00 0.  1.
         22   -1    0    0    0    0 -0.00000000000E+00 -0.00000000000E+00 -0.11968810093E+02  0.11968810093E+02  0.00000000000E+00 0. -1.
          4    1    1    2  501    0 -0.48635556092E-01  0.17924859425E+01 -0.83740737103E+01  0.86575621151E+01  0.12700000000E+01 0. -1.
         -4    1    1    2    0  501  0.48635556092E-01 -0.17924859425E+01 -0.31034206331E+01  0.38025637269E+01  0.12700000000E+01 0.  1.
<mgrwt>
<rscale>  0 0.21973328E+01</rscale>
<asrwt>0</asrwt>
<pdfrwt beam="1">0</pdfrwt>
<pdfrwt beam="2">0</pdfrwt>
<totfact> 0.28579279E+12</totfact>
</mgrwt>
</event>
<event>
 4    1  0.1750553E+006  0.2179714E+01  0.7546771E-02  0.2869139E+00
         22   -1    0    0    0    0  0.00000000000E+00  0.00000000000E+00  0.16415070189E+02  0.16415070189E+02  0.00000000000E+00 0.  1.
         22   -1    0    0    0    0 -0.00000000000E+00 -0.00000000000E+00 -0.36633486677E+00  0.36633486677E+00  0.00000000000E+00 0. -1.
          4    1    1    2  501    0 -0.44759372137E+00 -0.17140347474E+01  0.11868618957E+02  0.12067115281E+02  0.12700000000E+01 0. -1.
         -4    1    1    2    0  501  0.44759372137E+00  0.17140347474E+01  0.41801163649E+01  0.47142897745E+01  0.12700000000E+01 0.  1.
<mgrwt>
<rscale>  0 0.21797145E+01</rscale>
<asrwt>0</asrwt>
<pdfrwt beam="1">0</pdfrwt>
<pdfrwt beam="2">0</pdfrwt>
<totfact> 0.26996685E+12</totfact>
</mgrwt>
</event>
<event>
 4    1  0.1750553E+006  0.3716545E+01  0.7546771E-02  0.2334990E+00
         22   -1    0    0    0    0  0.00000000000E+00  0.00000000000E+00  0.47416399814E+00  0.47416399814E+00  0.00000000000E+00 0.  1.
         22   -1    0    0    0    0 -0.00000000000E+00 -0.00000000000E+00 -0.32496999442E+02  0.32496999442E+02  0.00000000000E+00 0.  1.
          4    1    1    2  501    0  0.40715327767E+00 -0.34690102174E+01 -0.21317356255E+02  0.21638909015E+02  0.12700000000E+01 0.  1.
         -4    1    1    2    0  501 -0.40715327767E+00  0.34690102174E+01 -0.10705479188E+02  0.11332254424E+02  0.12700000000E+01 0.  1.
<mgrwt>
<rscale>  0 0.37165449E+01</rscale>
<asrwt>0</asrwt>
<pdfrwt beam="1">0</pdfrwt>
<pdfrwt beam="2">0</pdfrwt>
<totfact> 0.85585576E+11</totfact>
</mgrwt>
</event>
<event>
 4    1  0.1750553E+006  0.2385125E+01  0.7546771E-02  0.2761448E+00
         22   -1    0    0    0    0  0.00000000000E+00  0.00000000000E+00  0.26116618331E+00  0.26116618331E+00  0.00000000000E+00 0.  1.
         22   -1    0    0    0    0 -0.00000000000E+00 -0.00000000000E+00 -0.23367590454E+02  0.23367590454E+02  0.00000000000E+00 0.  1.
          4    1    1    2  501    0 -0.19686560901E+01  0.44756745840E+00 -0.84760801717E+01  0.88052687925E+01  0.12700000000E+01 0.  1.
         -4    1    1    2    0  501  0.19686560901E+01 -0.44756745840E+00 -0.14630344099E+02  0.14823487844E+02  0.12700000000E+01 0.  1.
<mgrwt>
<rscale>  0 0.23851255E+01</rscale>
<asrwt>0</asrwt>
<pdfrwt beam="1">0</pdfrwt>
<pdfrwt beam="2">0</pdfrwt>
<totfact> 0.25415159E+12</totfact>
</mgrwt>
</event>
<event>
 4    1  0.1750553E+006  0.4043432E+01  0.7546771E-02  0.2269068E+00
         22   -1    0    0    0    0  0.00000000000E+00  0.00000000000E+00  0.61784628196E+01  0.61784628196E+01  0.00000000000E+00 0.  1.
         22   -1    0    0    0    0 -0.00000000000E+00 -0.00000000000E+00 -0.63989483693E+01  0.63989483693E+01  0.00000000000E+00 0. -1.
          4    1    1    2  501    0 -0.36617565766E+01  0.11523805116E+01  0.47057150853E+01  0.62042805009E+01  0.12700000000E+01 0.  1.
         -4    1    1    2    0  501  0.36617565766E+01 -0.11523805116E+01 -0.49262006350E+01  0.63731306880E+01  0.12700000000E+01 0. -1.
<mgrwt>
<rscale>  0 0.40434320E+01</rscale>
<asrwt>0</asrwt>
<pdfrwt beam="1">0</pdfrwt>
<pdfrwt beam="2">0</pdfrwt>
<totfact> 0.32562931E+11</totfact>
</mgrwt>
</event>
<event>
 4    1  0.1750553E+006  0.2966459E+01  0.7546771E-02  0.2532887E+00
         22   -1    0    0    0    0  0.00000000000E+00  0.00000000000E+00  0.45437783584E+00  0.45437783584E+00  0.00000000000E+00 0. -1.
         22   -1    0    0    0    0 -0.00000000000E+00 -0.00000000000E+00 -0.19458684316E+02  0.19458684316E+02  0.00000000000E+00 0. -1.
          4    1    1    2  501    0 -0.10649587617E+01  0.24602525137E+01 -0.88182568830E+01  0.93038451217E+01  0.12700000000E+01 0. -1.
         -4    1    1    2    0  501  0.10649587617E+01 -0.24602525137E+01 -0.10186049597E+02  0.10609217030E+02  0.12700000000E+01 0. -1.
<mgrwt>
<rscale>  0 0.29664591E+01</rscale>
<asrwt>0</asrwt>
<pdfrwt beam="1">0</pdfrwt>
<pdfrwt beam="2">0</pdfrwt>
<totfact> 0.17155207E+12</totfact>
</mgrwt>
</event>
<event>
 4    1  0.1750553E+006  0.2562702E+01  0.7546771E-02  0.2681516E+00
         22   -1    0    0    0    0  0.00000000000E+00  0.00000000000E+00  0.80322772735E+00  0.80322772735E+00  0.00000000000E+00 0. -1.
         22   -1    0    0    0    0 -0.00000000000E+00 -0.00000000000E+00 -0.82089450264E+01  0.82089450264E+01  0.00000000000E+00 0.  1.
          4    1    1    2  501    0 -0.19619578461E+01  0.10513139595E+01 -0.34187452216E+01  0.42726172917E+01  0.12700000000E+01 0.  1.
         -4    1    1    2    0  501  0.19619578461E+01 -0.10513139595E+01 -0.39869720774E+01  0.47395554620E+01  0.12700000000E+01 0. -1.
<mgrwt>
<rscale>  0 0.25627016E+01</rscale>
<asrwt>0</asrwt>
<pdfrwt beam="1">0</pdfrwt>
<pdfrwt beam="2">0</pdfrwt>
<totfact> 0.25846946E+12</totfact>
</mgrwt>
</event>
<event>
 4    1  0.1750553E+006  0.2311607E+01  0.7546771E-02  0.2797902E+00
         22   -1    0    0    0    0  0.00000000000E+00  0.00000000000E+00  0.36198464453E+00  0.36198464453E+00  0.00000000000E+00 0. -1.
         22   -1    0    0    0    0 -0.00000000000E+00 -0.00000000000E+00 -0.16805180604E+02  0.16805180604E+02  0.00000000000E+00 0.  1.
          4    1    1    2  501    0 -0.19310776103E+01  0.39548841632E-01 -0.52284545576E+01  0.57166652787E+01  0.12700000000E+01 0. -1.
         -4    1    1    2    0  501  0.19310776103E+01 -0.39548841632E-01 -0.11214741402E+02  0.11450499970E+02  0.12700000000E+01 0.  1.
<mgrwt>
<rscale>  0 0.23116066E+01</rscale>
<asrwt>0</asrwt>
<pdfrwt beam="1">0</pdfrwt>
<pdfrwt beam="2">0</pdfrwt>
<totfact> 0.26579334E+12</totfact>
</mgrwt>
</event>
<event>
 4    1  0.1750553E+006  0.2427087E+01  0.7546771E-02  0.2741575E+00
         22   -1    0    0    0    0  0.00000000000E+00  0.00000000000E+00  0.99975121047E+01  0.99975121047E+01  0.00000000000E+00 0.  1.
         22   -1    0    0    0    0 -0.00000000000E+00 -0.00000000000E+00 -0.59841630793E+00  0.59841630793E+00  0.00000000000E+00 0.  1.
          4    1    1    2  501    0 -0.37800406820E+00 -0.20334609871E+01  0.53562598214E+01  0.58804991231E+01  0.12700000000E+01 0.  1.
         -4    1    1    2    0  501  0.37800406820E+00  0.20334609871E+01  0.40428359753E+01  0.47154292896E+01  0.12700000000E+01 0.  1.
<mgrwt>
<rscale>  0 0.24270869E+01</rscale>
<asrwt>0</asrwt>
<pdfrwt beam="1">0</pdfrwt>
<pdfrwt beam="2">0</pdfrwt>
<totfact> 0.28457702E+12</totfact>
</mgrwt>
</event>
<event>
 4    1  0.1750553E+006  0.2807955E+01  0.7546771E-02  0.2586588E+00
         22   -1    0    0    0    0  0.00000000000E+00  0.00000000000E+00  0.10452538824E+02  0.10452538824E+02  0.00000000000E+00 0. -1.
         22   -1    0    0    0    0 -0.00000000000E+00 -0.00000000000E+00 -0.15389475596E+01  0.15389475596E+01  0.00000000000E+00 0.  1.
          4    1    1    2  501    0  0.22947294258E+01 -0.10029609238E+01  0.87379554852E+01  0.91780433543E+01  0.12700000000E+01 0. -1.
         -4    1    1    2    0  501 -0.22947294258E+01  0.10029609238E+01  0.17563577923E+00  0.28134430293E+01  0.12700000000E+01 0.  1.
<mgrwt>
<rscale>  0 0.28079554E+01</rscale>
<asrwt>0</asrwt>
<pdfrwt beam="1">0</pdfrwt>
<pdfrwt beam="2">0</pdfrwt>
<totfact> 0.91744999E+11</totfact>
</mgrwt>
</event>
<event>
 4    1  0.1750553E+006  0.2257210E+01  0.7546771E-02  0.2826320E+00
         22   -1    0    0    0    0  0.00000000000E+00  0.00000000000E+00  0.33109568434E+01  0.33109568434E+01  0.00000000000E+00 0. -1.
         22   -1    0    0    0    0 -0.00000000000E+00 -0.00000000000E+00 -0.16079805929E+01  0.16079805929E+01  0.00000000000E+00 0. -1.
          4    1    1    2  501    0  0.13956304330E+01  0.12386744554E+01  0.13615229273E+01  0.26360469255E+01  0.12700000000E+01 0. -1.
         -4    1    1    2    0  501 -0.13956304330E+01 -0.12386744554E+01  0.34145332328E+00  0.22828905108E+01  0.12700000000E+01 0. -1.
<mgrwt>
<rscale>  0 0.22572104E+01</rscale>
<asrwt>0</asrwt>
<pdfrwt beam="1">0</pdfrwt>
<pdfrwt beam="2">0</pdfrwt>
<totfact> 0.34273638E+12</totfact>
</mgrwt>
</event>
<event>
 4    1  0.1750553E+006  0.2242739E+01  0.7546771E-02  0.2834102E+00
         22   -1    0    0    0    0  0.00000000000E+00  0.00000000000E+00  0.25045484646E+02  0.25045484646E+02  0.00000000000E+00 0.  1.
         22   -1    0    0    0    0 -0.00000000000E+00 -0.00000000000E+00 -0.21104845301E+00  0.21104845301E+00  0.00000000000E+00 0.  1.
          4    1    1    2  501    0  0.67268532895E+00 -0.17217639844E+01  0.15195983881E+02  0.15360592530E+02  0.12700000000E+01 0.  1.
         -4    1    1    2    0  501 -0.67268532895E+00  0.17217639844E+01  0.96384523127E+01  0.98959405694E+01  0.12700000000E+01 0.  1.
<mgrwt>
<rscale>  0 0.22427387E+01</rscale>
<asrwt>0</asrwt>
<pdfrwt beam="1">0</pdfrwt>
<pdfrwt beam="2">0</pdfrwt>
<totfact> 0.29552442E+12</totfact>
</mgrwt>
</event>
<event>
 4    1  0.1750553E+006  0.2089546E+01  0.7546771E-02  0.2922797E+00
         22   -1    0    0    0    0  0.00000000000E+00  0.00000000000E+00  0.16209655305E+00  0.16209655305E+00  0.00000000000E+00 0.  1.
         22   -1    0    0    0    0 -0.00000000000E+00 -0.00000000000E+00 -0.52572145905E+02  0.52572145905E+02  0.00000000000E+00 0.  1.
          4    1    1    2  501    0 -0.16396746569E+01 -0.25449732811E+00 -0.77925210757E+01  0.80678117594E+01  0.12700000000E+01 0.  1.
         -4    1    1    2    0  501  0.16396746569E+01  0.25449732811E+00 -0.44617528276E+02  0.44666430699E+02  0.12700000000E+01 0.  1.
<mgrwt>
<rscale>  0 0.20895459E+01</rscale>
<asrwt>0</asrwt>
<pdfrwt beam="1">0</pdfrwt>
<pdfrwt beam="2">0</pdfrwt>
<totfact> 0.15230337E+12</totfact>
</mgrwt>
</event>
<event>
 4    1  0.1750553E+006  0.9524867E+01  0.7546771E-02  0.1799117E+00
         22   -1    0    0    0    0  0.00000000000E+00  0.00000000000E+00  0.73595203783E+01  0.73595203783E+01  0.00000000000E+00 0.  1.
         22   -1    0    0    0    0 -0.00000000000E+00 -0.00000000000E+00 -0.15883163159E+02  0.15883163159E+02  0.00000000000E+00 0. -1.
          4    1    1    2  501    0 -0.83907451218E+01  0.43249961903E+01  0.12368735871E+01  0.96048400307E+01  0.12700000000E+01 0.  1.
         -4    1    1    2    0  501  0.83907451218E+01 -0.43249961903E+01 -0.97605163680E+01  0.13637843507E+02  0.12700000000E+01 0. -1.
<mgrwt>
<rscale>  0 0.95248672E+01</rscale>
<asrwt>0</asrwt>
<pdfrwt beam="1">0</pdfrwt>
<pdfrwt beam="2">0</pdfrwt>
<totfact> 0.87794173E+10</totfact>
</mgrwt>
</event>
<event>
 4    1  0.1750553E+006  0.2189764E+01  0.7546771E-02  0.2863423E+00
         22   -1    0    0    0    0  0.00000000000E+00  0.00000000000E+00  0.26427795744E+01  0.26427795744E+01  0.00000000000E+00 0. -1.
         22   -1    0    0    0    0 -0.00000000000E+00 -0.00000000000E+00 -0.19258763047E+01  0.19258763047E+01  0.00000000000E+00 0. -1.
          4    1    1    2  501    0 -0.15133368556E+01 -0.94444583072E+00  0.90803085194E+00  0.23705666820E+01  0.12700000000E+01 0. -1.
         -4    1    1    2    0  501  0.15133368556E+01  0.94444583072E+00 -0.19112758220E+00  0.21980891971E+01  0.12700000000E+01 0. -1.
<mgrwt>
<rscale>  0 0.21897640E+01</rscale>
<asrwt>0</asrwt>
<pdfrwt beam="1">0</pdfrwt>
<pdfrwt beam="2">0</pdfrwt>
<totfact> 0.36210504E+12</totfact>
</mgrwt>
</event>
<event>
 4    1  0.1750553E+006  0.2332719E+01  0.7546771E-02  0.2787212E+00
         22   -1    0    0    0    0  0.00000000000E+00  0.00000000000E+00  0.11419055918E+00  0.11419055918E+00  0.00000000000E+00 0. -1.
         22   -1    0    0    0    0 -0.00000000000E+00 -0.00000000000E+00 -0.68219088540E+02  0.68219088540E+02  0.00000000000E+00 0. -1.
          4    1    1    2  501    0  0.16772274299E+00  0.19494994983E+01 -0.15293006116E+02  0.15469893836E+02  0.12700000000E+01 0. -1.
         -4    1    1    2    0  501 -0.16772274299E+00 -0.19494994983E+01 -0.52811891865E+02  0.52863385264E+02  0.12700000000E+01 0. -1.
<mgrwt>
<rscale>  0 0.23327193E+01</rscale>
<asrwt>0</asrwt>
<pdfrwt beam="1">0</pdfrwt>
<pdfrwt beam="2">0</pdfrwt>
<totfact> 0.15858902E+12</totfact>
</mgrwt>
</event>
<event>
 4    1  0.1750553E+006  0.2096182E+01  0.7546771E-02  0.2918696E+00
         22   -1    0    0    0    0  0.00000000000E+00  0.00000000000E+00  0.96249879842E-01  0.96249879842E-01  0.00000000000E+00 0. -1.
         22   -1    0    0    0    0 -0.00000000000E+00 -0.00000000000E+00 -0.75984282059E+02  0.75984282059E+02  0.00000000000E+00 0.  1.
          4    1    1    2  501    0  0.30442214026E+00 -0.16396363425E+01 -0.13909485530E+02  0.14066547831E+02  0.12700000000E+01 0. -1.
         -4    1    1    2    0  501 -0.30442214026E+00  0.16396363425E+01 -0.61978546649E+02  0.62013984107E+02  0.12700000000E+01 0.  1.
<mgrwt>
<rscale>  0 0.20961823E+01</rscale>
<asrwt>0</asrwt>
<pdfrwt beam="1">0</pdfrwt>
<pdfrwt beam="2">0</pdfrwt>
<totfact> 0.16548695E+12</totfact>
</mgrwt>
</event>
<event>
 4    1  0.1750553E+006  0.4336614E+01  0.7546771E-02  0.2217225E+00
         22   -1    0    0    0    0  0.00000000000E+00  0.00000000000E+00  0.47650390672E+01  0.47650390672E+01  0.00000000000E+00 0.  1.
         22   -1    0    0    0    0 -0.00000000000E+00 -0.00000000000E+00 -0.42389720926E+01  0.42389720926E+01  0.00000000000E+00 0. -1.
          4    1    1    2  501    0  0.38316832412E+01 -0.15847783141E+01  0.14451582955E+01  0.45710722226E+01  0.12700000000E+01 0. -1.
         -4    1    1    2    0  501 -0.38316832412E+01  0.15847783141E+01 -0.91909132086E+00  0.44329389373E+01  0.12700000000E+01 0.  1.
<mgrwt>
<rscale>  0 0.43366137E+01</rscale>
<asrwt>0</asrwt>
<pdfrwt beam="1">0</pdfrwt>
<pdfrwt beam="2">0</pdfrwt>
<totfact> 0.72216628E+11</totfact>
</mgrwt>
</event>
<event>
 4    1  0.1750553E+006  0.2471503E+01  0.7546771E-02  0.2721228E+00
         22   -1    0    0    0    0  0.00000000000E+00  0.00000000000E+00  0.91326855836E+00  0.91326855836E+00  0.00000000000E+00 0.  1.
         22   -1    0    0    0    0 -0.00000000000E+00 -0.00000000000E+00 -0.86829633631E+01  0.86829633631E+01  0.00000000000E+00 0. -1.
          4    1    1    2  501    0  0.11659718562E+01  0.17708575989E+01 -0.15852166815E+01  0.29361946346E+01  0.12700000000E+01 0.  1.
         -4    1    1    2    0  501 -0.11659718562E+01 -0.17708575989E+01 -0.61844781232E+01  0.66600372868E+01  0.12700000000E+01 0. -1.
<mgrwt>
<rscale>  0 0.24715030E+01</rscale>
<asrwt>0</asrwt>
<pdfrwt beam="1">0</pdfrwt>
<pdfrwt beam="2">0</pdfrwt>
<totfact> 0.20871597E+12</totfact>
</mgrwt>
</event>
<event>
 4    1  0.1750553E+006  0.2284240E+01  0.7546771E-02  0.2812038E+00
         22   -1    0    0    0    0  0.00000000000E+00  0.00000000000E+00  0.10180779554E+02  0.10180779554E+02  0.00000000000E+00 0. -1.
         22   -1    0    0    0    0 -0.00000000000E+00 -0.00000000000E+00 -0.93767862099E+00  0.93767862099E+00  0.00000000000E+00 0.  1.
          4    1    1    2  501    0  0.13899794127E+01  0.12933721206E+01  0.83649658579E+01  0.86712402812E+01  0.12700000000E+01 0. -1.
         -4    1    1    2    0  501 -0.13899794127E+01 -0.12933721206E+01  0.87813507524E+00  0.24472178939E+01  0.12700000000E+01 0.  1.
<mgrwt>
<rscale>  0 0.22842404E+01</rscale>
<asrwt>0</asrwt>
<pdfrwt beam="1">0</pdfrwt>
<pdfrwt beam="2">0</pdfrwt>
<totfact> 0.16710081E+12</totfact>
</mgrwt>
</event>
<event>
 4    1  0.1750553E+006  0.2981136E+01  0.7546771E-02  0.2528175E+00
         22   -1    0    0    0    0  0.00000000000E+00  0.00000000000E+00  0.30806821478E+02  0.30806821478E+02  0.00000000000E+00 0.  1.
         22   -1    0    0    0    0 -0.00000000000E+00 -0.00000000000E+00 -0.29198995634E+00  0.29198995634E+00  0.00000000000E+00 0. -1.
          4    1    1    2  501    0  0.26963307501E+01  0.63811989781E-01  0.16962089549E+02  0.17222068788E+02  0.12700000000E+01 0. -1.
         -4    1    1    2    0  501 -0.26963307501E+01 -0.63811989781E-01  0.13552741973E+02  0.13876742646E+02  0.12700000000E+01 0.  1.
<mgrwt>
<rscale>  0 0.29811359E+01</rscale>
<asrwt>0</asrwt>
<pdfrwt beam="1">0</pdfrwt>
<pdfrwt beam="2">0</pdfrwt>
<totfact> 0.15806421E+12</totfact>
</mgrwt>
</event>
<event>
 4    1  0.1750553E+006  0.2802360E+01  0.7546771E-02  0.2588584E+00
         22   -1    0    0    0    0  0.00000000000E+00  0.00000000000E+00  0.89871158428E+00  0.89871158428E+00  0.00000000000E+00 0. -1.
         22   -1    0    0    0    0 -0.00000000000E+00 -0.00000000000E+00 -0.87972788475E+01  0.87972788475E+01  0.00000000000E+00 0. -1.
          4    1    1    2  501    0  0.16064499893E+00  0.24928926999E+01 -0.43461987718E+01  0.51713310272E+01  0.12700000000E+01 0. -1.
         -4    1    1    2    0  501 -0.16064499893E+00 -0.24928926999E+01 -0.35523684915E+01  0.45246594047E+01  0.12700000000E+01 0. -1.
<mgrwt>
<rscale>  0 0.28023599E+01</rscale>
<asrwt>0</asrwt>
<pdfrwt beam="1">0</pdfrwt>
<pdfrwt beam="2">0</pdfrwt>
<totfact> 0.20925388E+12</totfact>
</mgrwt>
</event>
<event>
 4    1  0.1750553E+006  0.2307023E+01  0.7546771E-02  0.2800248E+00
         22   -1    0    0    0    0  0.00000000000E+00  0.00000000000E+00  0.55930677434E+01  0.55930677434E+01  0.00000000000E+00 0.  1.
         22   -1    0    0    0    0 -0.00000000000E+00 -0.00000000000E+00 -0.96862728418E+00  0.96862728418E+00  0.00000000000E+00 0. -1.
          4    1    1    2  501    0 -0.10402217549E+01  0.16209238954E+01  0.18772115489E+01  0.29742694520E+01  0.12700000000E+01 0.  1.
         -4    1    1    2    0  501  0.10402217549E+01 -0.16209238954E+01  0.27472289103E+01  0.35874255755E+01  0.12700000000E+01 0. -1.
<mgrwt>
<rscale>  0 0.23070231E+01</rscale>
<asrwt>0</asrwt>
<pdfrwt beam="1">0</pdfrwt>
<pdfrwt beam="2">0</pdfrwt>
<totfact> 0.33026938E+12</totfact>
</mgrwt>
</event>
<event>
 4    1  0.1750553E+006  0.3140461E+01  0.7546771E-02  0.2479574E+00
         22   -1    0    0    0    0  0.00000000000E+00  0.00000000000E+00  0.32738029307E+02  0.32738029307E+02  0.00000000000E+00 0. -1.
         22   -1    0    0    0    0 -0.00000000000E+00 -0.00000000000E+00 -0.66499668759E+00  0.66499668759E+00  0.00000000000E+00 0.  1.
          4    1    1    2  501    0 -0.24124254786E+01 -0.15587805738E+01  0.28388668672E+02  0.28561845223E+02  0.12700000000E+01 0. -1.
         -4    1    1    2    0  501  0.24124254786E+01  0.15587805738E+01  0.36843639472E+01  0.48411807715E+01  0.12700000000E+01 0.  1.
<mgrwt>
<rscale>  0 0.31404607E+01</rscale>
<asrwt>0</asrwt>
<pdfrwt beam="1">0</pdfrwt>
<pdfrwt beam="2">0</pdfrwt>
<totfact> 0.57825669E+11</totfact>
</mgrwt>
</event>
<event>
 4    1  0.1750553E+006  0.2207266E+01  0.7546771E-02  0.2853587E+00
         22   -1    0    0    0    0  0.00000000000E+00  0.00000000000E+00  0.81511799059E+01  0.81511799059E+01  0.00000000000E+00 0.  1.
         22   -1    0    0    0    0 -0.00000000000E+00 -0.00000000000E+00 -0.59899341313E+00  0.59899341313E+00  0.00000000000E+00 0.  1.
          4    1    1    2  501    0  0.13681442048E+01 -0.11778388853E+01  0.35733961879E+01  0.42001408692E+01  0.12700000000E+01 0.  1.
         -4    1    1    2    0  501 -0.13681442048E+01  0.11778388853E+01  0.39787903048E+01  0.45500324499E+01  0.12700000000E+01 0.  1.
<mgrwt>
<rscale>  0 0.22072660E+01</rscale>
<asrwt>0</asrwt>
<pdfrwt beam="1">0</pdfrwt>
<pdfrwt beam="2">0</pdfrwt>
<totfact> 0.36365717E+12</totfact>
</mgrwt>
</event>
<event>
 4    1  0.1750553E+006  0.4895539E+01  0.7546771E-02  0.2135683E+00
         22   -1    0    0    0    0  0.00000000000E+00  0.00000000000E+00  0.32643926400E+01  0.32643926400E+01  0.00000000000E+00 0.  1.
         22   -1    0    0    0    0 -0.00000000000E+00 -0.00000000000E+00 -0.82930856498E+01  0.82930856498E+01  0.00000000000E+00 0. -1.
          4    1    1    2  501    0 -0.47026497427E+01 -0.48835660475E+00 -0.55710124687E+00  0.49271359404E+01  0.12700000000E+01 0.  1.
         -4    1    1    2    0  501  0.47026497427E+01  0.48835660475E+00 -0.44715917629E+01  0.66303423494E+01  0.12700000000E+01 0. -1.
<mgrwt>
<rscale>  0 0.48955395E+01</rscale>
<asrwt>0</asrwt>
<pdfrwt beam="1">0</pdfrwt>
<pdfrwt beam="2">0</pdfrwt>
<totfact> 0.50696487E+11</totfact>
</mgrwt>
</event>
<event>
 4    1  0.1750553E+006  0.2943600E+01  0.7546771E-02  0.2540309E+00
         22   -1    0    0    0    0  0.00000000000E+00  0.00000000000E+00  0.84853534272E-01  0.84853534272E-01  0.00000000000E+00 0.  1.
         22   -1    0    0    0    0 -0.00000000000E+00 -0.00000000000E+00 -0.10546133041E+03  0.10546133041E+03  0.00000000000E+00 0. -1.
          4    1    1    2  501    0 -0.19081024219E+01 -0.18468959199E+01 -0.62089374752E+02  0.62159112256E+02  0.12700000000E+01 0. -1.
         -4    1    1    2    0  501  0.19081024219E+01  0.18468959199E+01 -0.43287102123E+02  0.43387071688E+02  0.12700000000E+01 0.  1.
<mgrwt>
<rscale>  0 0.29435997E+01</rscale>
<asrwt>0</asrwt>
<pdfrwt beam="1">0</pdfrwt>
<pdfrwt beam="2">0</pdfrwt>
<totfact> 0.12058665E+12</totfact>
</mgrwt>
</event>
<event>
 4    1  0.1750553E+006  0.2186719E+01  0.7546771E-02  0.2865150E+00
         22   -1    0    0    0    0  0.00000000000E+00  0.00000000000E+00  0.11996407497E+02  0.11996407497E+02  0.00000000000E+00 0. -1.
         22   -1    0    0    0    0 -0.00000000000E+00 -0.00000000000E+00 -0.43341288459E+00  0.43341288459E+00  0.00000000000E+00 0. -1.
          4    1    1    2  501    0  0.13069955077E+01  0.12085535265E+01  0.40200522267E+01  0.45763040534E+01  0.12700000000E+01 0. -1.
         -4    1    1    2    0  501 -0.13069955077E+01 -0.12085535265E+01  0.75429423858E+01  0.78535163283E+01  0.12700000000E+01 0. -1.
<mgrwt>
<rscale>  0 0.21867187E+01</rscale>
<asrwt>0</asrwt>
<pdfrwt beam="1">0</pdfrwt>
<pdfrwt beam="2">0</pdfrwt>
<totfact> 0.32828872E+12</totfact>
</mgrwt>
</event>
<event>
 4    1  0.1750553E+006  0.2833465E+01  0.7546771E-02  0.2577579E+00
         22   -1    0    0    0    0  0.00000000000E+00  0.00000000000E+00  0.73500027816E+00  0.73500027816E+00  0.00000000000E+00 0.  1.
         22   -1    0    0    0    0 -0.00000000000E+00 -0.00000000000E+00 -0.10924218563E+02  0.10924218563E+02  0.00000000000E+00 0. -1.
          4    1    1    2  501    0  0.25041025589E+01  0.38090871298E+00 -0.51521628162E+01  0.58799066964E+01  0.12700000000E+01 0.  1.
         -4    1    1    2    0  501 -0.25041025589E+01 -0.38090871298E+00 -0.50370554687E+01  0.57793121448E+01  0.12700000000E+01 0. -1.
<mgrwt>
<rscale>  0 0.28334645E+01</rscale>
<asrwt>0</asrwt>
<pdfrwt beam="1">0</pdfrwt>
<pdfrwt beam="2">0</pdfrwt>
<totfact> 0.20242068E+12</totfact>
</mgrwt>
</event>
<event>
 4    1  0.1750553E+006  0.2363101E+01  0.7546771E-02  0.2772144E+00
         22   -1    0    0    0    0  0.00000000000E+00  0.00000000000E+00  0.62917609013E+00  0.62917609013E+00  0.00000000000E+00 0. -1.
         22   -1    0    0    0    0 -0.00000000000E+00 -0.00000000000E+00 -0.89076534451E+01  0.89076534451E+01  0.00000000000E+00 0. -1.
          4    1    1    2  501    0 -0.15264062599E+01 -0.12811837848E+01 -0.44257578194E+01  0.50171286845E+01  0.12700000000E+01 0. -1.
         -4    1    1    2    0  501  0.15264062599E+01  0.12811837848E+01 -0.38527195356E+01  0.45197008508E+01  0.12700000000E+01 0. -1.
<mgrwt>
<rscale>  0 0.23631013E+01</rscale>
<asrwt>0</asrwt>
<pdfrwt beam="1">0</pdfrwt>
<pdfrwt beam="2">0</pdfrwt>
<totfact> 0.30910898E+12</totfact>
</mgrwt>
</event>
<event>
 4    1  0.1750553E+006  0.4591046E+01  0.7546771E-02  0.2176798E+00
         22   -1    0    0    0    0  0.00000000000E+00  0.00000000000E+00  0.64977315440E+01  0.64977315440E+01  0.00000000000E+00 0. -1.
         22   -1    0    0    0    0 -0.00000000000E+00 -0.00000000000E+00 -0.33353670199E+01  0.33353670199E+01  0.00000000000E+00 0.  1.
          4    1    1    2  501    0  0.37219743713E+01  0.23689048406E+01  0.23955602814E+01  0.51784565679E+01  0.12700000000E+01 0. -1.
         -4    1    1    2    0  501 -0.37219743713E+01 -0.23689048406E+01  0.76680424265E+00  0.46546419960E+01  0.12700000000E+01 0.  1.
<mgrwt>
<rscale>  0 0.45910460E+01</rscale>
<asrwt>0</asrwt>
<pdfrwt beam="1">0</pdfrwt>
<pdfrwt beam="2">0</pdfrwt>
<totfact> 0.66217994E+11</totfact>
</mgrwt>
</event>
<event>
 4    1  0.1750553E+006  0.2963353E+01  0.7546771E-02  0.2533889E+00
         22   -1    0    0    0    0  0.00000000000E+00  0.00000000000E+00  0.36840488790E+02  0.36840488790E+02  0.00000000000E+00 0.  1.
         22   -1    0    0    0    0 -0.00000000000E+00 -0.00000000000E+00 -0.25124814297E+00  0.25124814297E+00  0.00000000000E+00 0. -1.
          4    1    1    2  501    0  0.21247960368E+01  0.16290492069E+01  0.22494312435E+02  0.22688665705E+02  0.12700000000E+01 0.  1.
         -4    1    1    2    0  501 -0.21247960368E+01 -0.16290492069E+01  0.14094928212E+02  0.14403071228E+02  0.12700000000E+01 0. -1.
<mgrwt>
<rscale>  0 0.29633527E+01</rscale>
<asrwt>0</asrwt>
<pdfrwt beam="1">0</pdfrwt>
<pdfrwt beam="2">0</pdfrwt>
<totfact> 0.14866802E+12</totfact>
</mgrwt>
</event>
<event>
 4    1  0.1750553E+006  0.3255019E+01  0.7546771E-02  0.2447257E+00
         22   -1    0    0    0    0  0.00000000000E+00  0.00000000000E+00  0.13161368368E+02  0.13161368368E+02  0.00000000000E+00 0. -1.
         22   -1    0    0    0    0 -0.00000000000E+00 -0.00000000000E+00 -0.98638726963E+00  0.98638726963E+00  0.00000000000E+00 0.  1.
          4    1    1    2  501    0  0.17350432265E+01  0.24437413686E+01  0.30541937284E+01  0.44635463709E+01  0.12700000000E+01 0. -1.
         -4    1    1    2    0  501 -0.17350432265E+01 -0.24437413686E+01  0.91207873702E+01  0.96842092670E+01  0.12700000000E+01 0.  1.
<mgrwt>
<rscale>  0 0.32550187E+01</rscale>
<asrwt>0</asrwt>
<pdfrwt beam="1">0</pdfrwt>
<pdfrwt beam="2">0</pdfrwt>
<totfact> 0.11537409E+12</totfact>
</mgrwt>
</event>
<event>
 4    1  0.1750553E+006  0.2184478E+01  0.7546771E-02  0.2866424E+00
         22   -1    0    0    0    0  0.00000000000E+00  0.00000000000E+00  0.35096797306E+00  0.35096797306E+00  0.00000000000E+00 0. -1.
         22   -1    0    0    0    0 -0.00000000000E+00 -0.00000000000E+00 -0.14012386100E+02  0.14012386100E+02  0.00000000000E+00 0. -1.
          4    1    1    2  501    0  0.16780909301E+01  0.58570791372E+00 -0.55934894843E+01  0.60049202777E+01  0.12700000000E+01 0. -1.
         -4    1    1    2    0  501 -0.16780909301E+01 -0.58570791372E+00 -0.80679286426E+01  0.83584337954E+01  0.12700000000E+01 0. -1.
<mgrwt>
<rscale>  0 0.21844777E+01</rscale>
<asrwt>0</asrwt>
<pdfrwt beam="1">0</pdfrwt>
<pdfrwt beam="2">0</pdfrwt>
<totfact> 0.34423189E+12</totfact>
</mgrwt>
</event>
<event>
 4    1  0.1750553E+006  0.2596716E+01  0.7546771E-02  0.2667368E+00
         22   -1    0    0    0    0  0.00000000000E+00  0.00000000000E+00  0.13871815658E+02  0.13871815658E+02  0.00000000000E+00 0.  1.
         22   -1    0    0    0    0 -0.00000000000E+00 -0.00000000000E+00 -0.52573034458E+00  0.52573034458E+00  0.00000000000E+00 0. -1.
          4    1    1    2  501    0  0.14678354696E+01 -0.17249616310E+01  0.86497960389E+01  0.90311629987E+01  0.12700000000E+01 0.  1.
         -4    1    1    2    0  501 -0.14678354696E+01  0.17249616310E+01  0.46962892742E+01  0.53663830036E+01  0.12700000000E+01 0. -1.
<mgrwt>
<rscale>  0 0.25967159E+01</rscale>
<asrwt>0</asrwt>
<pdfrwt beam="1">0</pdfrwt>
<pdfrwt beam="2">0</pdfrwt>
<totfact> 0.22105494E+12</totfact>
</mgrwt>
</event>
<event>
 4    1  0.1750553E+006  0.2206729E+01  0.7546771E-02  0.2853886E+00
         22   -1    0    0    0    0  0.00000000000E+00  0.00000000000E+00  0.99957750824E+01  0.99957750824E+01  0.00000000000E+00 0. -1.
         22   -1    0    0    0    0 -0.00000000000E+00 -0.00000000000E+00 -0.51489759111E+00  0.51489759111E+00  0.00000000000E+00 0.  1.
          4    1    1    2  501    0 -0.43752785043E-01  0.18041174548E+01  0.59599518740E+01  0.63553662709E+01  0.12700000000E+01 0. -1.
         -4    1    1    2    0  501  0.43752785043E-01 -0.18041174548E+01  0.35209256173E+01  0.41553064026E+01  0.12700000000E+01 0.  1.
<mgrwt>
<rscale>  0 0.22067293E+01</rscale>
<asrwt>0</asrwt>
<pdfrwt beam="1">0</pdfrwt>
<pdfrwt beam="2">0</pdfrwt>
<totfact> 0.33737505E+12</totfact>
</mgrwt>
</event>
<event>
 4    1  0.1750553E+006  0.2813701E+01  0.7546771E-02  0.2584546E+00
         22   -1    0    0    0    0  0.00000000000E+00  0.00000000000E+00  0.64493318279E+01  0.64493318279E+01  0.00000000000E+00 0. -1.
         22   -1    0    0    0    0 -0.00000000000E+00 -0.00000000000E+00 -0.19829785013E+01  0.19829785013E+01  0.00000000000E+00 0.  1.
          4    1    1    2  501    0 -0.23860699248E+01  0.78146413493E+00  0.48354478049E+01  0.55945036736E+01  0.12700000000E+01 0. -1.
         -4    1    1    2    0  501  0.23860699248E+01 -0.78146413493E+00 -0.36909447832E+00  0.28378066556E+01  0.12700000000E+01 0.  1.
<mgrwt>
<rscale>  0 0.28137015E+01</rscale>
<asrwt>0</asrwt>
<pdfrwt beam="1">0</pdfrwt>
<pdfrwt beam="2">0</pdfrwt>
<totfact> 0.12238131E+12</totfact>
</mgrwt>
</event>
<event>
 4    1  0.1750553E+006  0.2158354E+01  0.7546771E-02  0.2881460E+00
         22   -1    0    0    0    0  0.00000000000E+00  0.00000000000E+00  0.64847389908E+00  0.64847389908E+00  0.00000000000E+00 0.  1.
         22   -1    0    0    0    0 -0.00000000000E+00 -0.00000000000E+00 -0.20492446761E+02  0.20492446761E+02  0.00000000000E+00 0.  1.
          4    1    1    2  501    0  0.90322126967E+00 -0.14932457942E+01 -0.14034629910E+01  0.25745290892E+01  0.12700000000E+01 0.  1.
         -4    1    1    2    0  501 -0.90322126967E+00  0.14932457942E+01 -0.18440509871E+02  0.18566391571E+02  0.12700000000E+01 0.  1.
<mgrwt>
<rscale>  0 0.21583539E+01</rscale>
<asrwt>0</asrwt>
<pdfrwt beam="1">0</pdfrwt>
<pdfrwt beam="2">0</pdfrwt>
<totfact> 0.10756577E+12</totfact>
</mgrwt>
</event>
<event>
 4    1  0.1750553E+006  0.4114317E+01  0.7546771E-02  0.2255961E+00
         22   -1    0    0    0    0  0.00000000000E+00  0.00000000000E+00  0.16869385562E+02  0.16869385562E+02  0.00000000000E+00 0. -1.
         22   -1    0    0    0    0 -0.00000000000E+00 -0.00000000000E+00 -0.11587569739E+01  0.11587569739E+01  0.00000000000E+00 0.  1.
          4    1    1    2  501    0 -0.35885174437E+01  0.15611676691E+01  0.11155351812E+02  0.11889889654E+02  0.12700000000E+01 0. -1.
         -4    1    1    2    0  501  0.35885174437E+01 -0.15611676691E+01  0.45552767755E+01  0.61382528814E+01  0.12700000000E+01 0.  1.
<mgrwt>
<rscale>  0 0.41143167E+01</rscale>
<asrwt>0</asrwt>
<pdfrwt beam="1">0</pdfrwt>
<pdfrwt beam="2">0</pdfrwt>
<totfact> 0.70715492E+11</totfact>
</mgrwt>
</event>
<event>
 4    1  0.1750553E+006  0.3593392E+01  0.7546771E-02  0.2362482E+00
         22   -1    0    0    0    0  0.00000000000E+00  0.00000000000E+00  0.33367542786E+01  0.33367542786E+01  0.00000000000E+00 0.  1.
         22   -1    0    0    0    0 -0.00000000000E+00 -0.00000000000E+00 -0.85233425900E+01  0.85233425900E+01  0.00000000000E+00 0. -1.
          4    1    1    2  501    0  0.33590900111E+01  0.12681857587E+00  0.17884453549E+01  0.40138516965E+01  0.12700000000E+01 0.  1.
         -4    1    1    2    0  501 -0.33590900111E+01 -0.12681857587E+00 -0.69750336663E+01  0.78462451721E+01  0.12700000000E+01 0. -1.
<mgrwt>
<rscale>  0 0.35933924E+01</rscale>
<asrwt>0</asrwt>
<pdfrwt beam="1">0</pdfrwt>
<pdfrwt beam="2">0</pdfrwt>
<totfact> 0.47809464E+11</totfact>
</mgrwt>
</event>
<event>
 4    1  0.1750553E+006  0.2047104E+01  0.7546771E-02  0.2949638E+00
         22   -1    0    0    0    0  0.00000000000E+00  0.00000000000E+00  0.83494329883E+00  0.83494329883E+00  0.00000000000E+00 0. -1.
         22   -1    0    0    0    0 -0.00000000000E+00 -0.00000000000E+00 -0.63305338001E+01  0.63305338001E+01  0.00000000000E+00 0.  1.
          4    1    1    2  501    0 -0.65323949006E+00 -0.14666328425E+01 -0.11170950559E+01  0.23320666993E+01  0.12700000000E+01 0.  1.
         -4    1    1    2    0  501  0.65323949006E+00  0.14666328425E+01 -0.43784954454E+01  0.48334103996E+01  0.12700000000E+01 0.  1.
<mgrwt>
<rscale>  0 0.20471037E+01</rscale>
<asrwt>0</asrwt>
<pdfrwt beam="1">0</pdfrwt>
<pdfrwt beam="2">0</pdfrwt>
<totfact> 0.33755750E+12</totfact>
</mgrwt>
</event>
<event>
 4    1  0.1750553E+006  0.2076020E+01  0.7546771E-02  0.2931235E+00
         22   -1    0    0    0    0  0.00000000000E+00  0.00000000000E+00  0.40238973942E+00  0.40238973942E+00  0.00000000000E+00 0. -1.
         22   -1    0    0    0    0 -0.00000000000E+00 -0.00000000000E+00 -0.11654515907E+02  0.11654515907E+02  0.00000000000E+00 0.  1.
          4    1    1    2  501    0  0.14123742319E+01  0.83794858824E+00 -0.73416475240E+01  0.76295247017E+01  0.12700000000E+01 0.  1.
         -4    1    1    2    0  501 -0.14123742319E+01 -0.83794858824E+00 -0.39104786433E+01  0.44273809444E+01  0.12700000000E+01 0. -1.
<mgrwt>
<rscale>  0 0.20760199E+01</rscale>
<asrwt>0</asrwt>
<pdfrwt beam="1">0</pdfrwt>
<pdfrwt beam="2">0</pdfrwt>
<totfact> 0.36972123E+12</totfact>
</mgrwt>
</event>
<event>
 4    1  0.1750553E+006  0.2218855E+01  0.7546771E-02  0.2847156E+00
         22   -1    0    0    0    0  0.00000000000E+00  0.00000000000E+00  0.95385933510E+00  0.95385933510E+00  0.00000000000E+00 0.  1.
         22   -1    0    0    0    0 -0.00000000000E+00 -0.00000000000E+00 -0.36761503458E+02  0.36761503458E+02  0.00000000000E+00 0. -1.
          4    1    1    2  501    0  0.15181724439E+01  0.10027808107E+01 -0.42003821295E+00  0.22582623905E+01  0.12700000000E+01 0.  1.
         -4    1    1    2    0  501 -0.15181724439E+01 -0.10027808107E+01 -0.35387605910E+02  0.35457100403E+02  0.12700000000E+01 0. -1.
<mgrwt>
<rscale>  0 0.22188549E+01</rscale>
<asrwt>0</asrwt>
<pdfrwt beam="1">0</pdfrwt>
<pdfrwt beam="2">0</pdfrwt>
<totfact> 0.33048191E+11</totfact>
</mgrwt>
</event>
<event>
 4    1  0.1750553E+006  0.2130016E+01  0.7546771E-02  0.2898171E+00
         22   -1    0    0    0    0  0.00000000000E+00  0.00000000000E+00  0.79175245567E+01  0.79175245567E+01  0.00000000000E+00 0.  1.
         22   -1    0    0    0    0 -0.00000000000E+00 -0.00000000000E+00 -0.17346363267E+01  0.17346363267E+01  0.00000000000E+00 0. -1.
          4    1    1    2  501    0 -0.14360033101E+01  0.92842029624E+00  0.70407433666E+01  0.73558845088E+01  0.12700000000E+01 0.  1.
         -4    1    1    2    0  501  0.14360033101E+01 -0.92842029624E+00 -0.85785513656E+00  0.22962763746E+01  0.12700000000E+01 0. -1.
<mgrwt>
<rscale>  0 0.21300164E+01</rscale>
<asrwt>0</asrwt>
<pdfrwt beam="1">0</pdfrwt>
<pdfrwt beam="2">0</pdfrwt>
<totfact> 0.11174159E+12</totfact>
</mgrwt>
</event>
<event>
 4    1  0.1750553E+006  0.5550753E+01  0.7546771E-02  0.2062485E+00
         22   -1    0    0    0    0  0.00000000000E+00  0.00000000000E+00  0.33331741207E+02  0.33331741207E+02  0.00000000000E+00 0.  1.
         22   -1    0    0    0    0 -0.00000000000E+00 -0.00000000000E+00 -0.95139586519E+00  0.95139586519E+00  0.00000000000E+00 0. -1.
          4    1    1    2  501    0 -0.49158360090E+01  0.22433259886E+01  0.13301081214E+02  0.14412828196E+02  0.12700000000E+01 0. -1.
         -4    1    1    2    0  501  0.49158360090E+01 -0.22433259886E+01  0.19079264128E+02  0.19870308876E+02  0.12700000000E+01 0.  1.
<mgrwt>
<rscale>  0 0.55507527E+01</rscale>
<asrwt>0</asrwt>
<pdfrwt beam="1">0</pdfrwt>
<pdfrwt beam="2">0</pdfrwt>
<totfact> 0.37599926E+11</totfact>
</mgrwt>
</event>
<event>
 4    1  0.1750553E+006  0.2116037E+01  0.7546771E-02  0.2906574E+00
         22   -1    0    0    0    0  0.00000000000E+00  0.00000000000E+00  0.50394062278E+00  0.50394062278E+00  0.00000000000E+00 0. -1.
         22   -1    0    0    0    0 -0.00000000000E+00 -0.00000000000E+00 -0.12439705380E+02  0.12439705380E+02  0.00000000000E+00 0.  1.
          4    1    1    2  501    0 -0.11227512036E+01  0.12665480663E+01 -0.25084006216E+01  0.32817202726E+01  0.12700000000E+01 0. -1.
         -4    1    1    2    0  501  0.11227512036E+01 -0.12665480663E+01 -0.94273641359E+01  0.96619257304E+01  0.12700000000E+01 0.  1.
<mgrwt>
<rscale>  0 0.21160374E+01</rscale>
<asrwt>0</asrwt>
<pdfrwt beam="1">0</pdfrwt>
<pdfrwt beam="2">0</pdfrwt>
<totfact> 0.26494282E+12</totfact>
</mgrwt>
</event>
<event>
 4    1  0.1750553E+006  0.2469503E+01  0.7546771E-02  0.2722130E+00
         22   -1    0    0    0    0  0.00000000000E+00  0.00000000000E+00  0.64013683844E+00  0.64013683844E+00  0.00000000000E+00 0. -1.
         22   -1    0    0    0    0 -0.00000000000E+00 -0.00000000000E+00 -0.95501853676E+01  0.95501853676E+01  0.00000000000E+00 0.  1.
          4    1    1    2  501    0  0.11322431122E+01 -0.17898521846E+01 -0.47072409615E+01  0.53156902447E+01  0.12700000000E+01 0.  1.
         -4    1    1    2    0  501 -0.11322431122E+01  0.17898521846E+01 -0.42028075676E+01  0.48746319613E+01  0.12700000000E+01 0. -1.
<mgrwt>
<rscale>  0 0.24695030E+01</rscale>
<asrwt>0</asrwt>
<pdfrwt beam="1">0</pdfrwt>
<pdfrwt beam="2">0</pdfrwt>
<totfact> 0.27867277E+12</totfact>
</mgrwt>
</event>
<event>
 4    1  0.1750553E+006  0.3893744E+01  0.7546771E-02  0.2298078E+00
         22   -1    0    0    0    0  0.00000000000E+00  0.00000000000E+00  0.63815247589E+00  0.63815247589E+00  0.00000000000E+00 0. -1.
         22   -1    0    0    0    0 -0.00000000000E+00 -0.00000000000E+00 -0.26879498622E+02  0.26879498622E+02  0.00000000000E+00 0.  1.
          4    1    1    2  501    0  0.36060059961E+01 -0.73828364626E+00 -0.17809353904E+02  0.18230039179E+02  0.12700000000E+01 0.  1.
         -4    1    1    2    0  501 -0.36060059961E+01  0.73828364626E+00 -0.84319922419E+01  0.92876119187E+01  0.12700000000E+01 0. -1.
<mgrwt>
<rscale>  0 0.38937440E+01</rscale>
<asrwt>0</asrwt>
<pdfrwt beam="1">0</pdfrwt>
<pdfrwt beam="2">0</pdfrwt>
<totfact> 0.77888808E+11</totfact>
</mgrwt>
</event>
<event>
 4    1  0.1750553E+006  0.2392952E+01  0.7546771E-02  0.2757692E+00
         22   -1    0    0    0    0  0.00000000000E+00  0.00000000000E+00  0.38657989523E+00  0.38657989523E+00  0.00000000000E+00 0. -1.
         22   -1    0    0    0    0 -0.00000000000E+00 -0.00000000000E+00 -0.15250722766E+02  0.15250722766E+02  0.00000000000E+00 0. -1.
          4    1    1    2  501    0  0.18039870952E+01  0.92679463086E+00 -0.87574203240E+01  0.90784706013E+01  0.12700000000E+01 0. -1.
         -4    1    1    2    0  501 -0.18039870952E+01 -0.92679463086E+00 -0.61067225471E+01  0.65588320603E+01  0.12700000000E+01 0. -1.
<mgrwt>
<rscale>  0 0.23929517E+01</rscale>
<asrwt>0</asrwt>
<pdfrwt beam="1">0</pdfrwt>
<pdfrwt beam="2">0</pdfrwt>
<totfact> 0.27826945E+12</totfact>
</mgrwt>
</event>
<event>
 4    1  0.1750553E+006  0.2683832E+01  0.7546771E-02  0.2632643E+00
         22   -1    0    0    0    0  0.00000000000E+00  0.00000000000E+00  0.31279167026E+01  0.31279167026E+01  0.00000000000E+00 0.  1.
         22   -1    0    0    0    0 -0.00000000000E+00 -0.00000000000E+00 -0.42174143784E+01  0.42174143784E+01  0.00000000000E+00 0. -1.
          4    1    1    2  501    0  0.18230802033E+01 -0.15054673162E+01  0.19298191124E+01  0.33056247631E+01  0.12700000000E+01 0.  1.
         -4    1    1    2    0  501 -0.18230802033E+01  0.15054673162E+01 -0.30193167882E+01  0.40397063179E+01  0.12700000000E+01 0. -1.
<mgrwt>
<rscale>  0 0.26838318E+01</rscale>
<asrwt>0</asrwt>
<pdfrwt beam="1">0</pdfrwt>
<pdfrwt beam="2">0</pdfrwt>
<totfact> 0.11917196E+12</totfact>
</mgrwt>
</event>
<event>
 4    1  0.1750553E+006  0.2201785E+01  0.7546771E-02  0.2856651E+00
         22   -1    0    0    0    0  0.00000000000E+00  0.00000000000E+00  0.34104772587E+00  0.34104772587E+00  0.00000000000E+00 0.  1.
         22   -1    0    0    0    0 -0.00000000000E+00 -0.00000000000E+00 -0.17577406652E+02  0.17577406652E+02  0.00000000000E+00 0. -1.
          4    1    1    2  501    0 -0.46246850256E+00  0.17381258453E+01 -0.46994633565E+01  0.51896834594E+01  0.12700000000E+01 0.  1.
         -4    1    1    2    0  501  0.46246850256E+00 -0.17381258453E+01 -0.12536895570E+02  0.12728770919E+02  0.12700000000E+01 0. -1.
<mgrwt>
<rscale>  0 0.22017853E+01</rscale>
<asrwt>0</asrwt>
<pdfrwt beam="1">0</pdfrwt>
<pdfrwt beam="2">0</pdfrwt>
<totfact> 0.26881384E+12</totfact>
</mgrwt>
</event>
<event>
 4    1  0.1750553E+006  0.2163641E+01  0.7546771E-02  0.2878389E+00
         22   -1    0    0    0    0  0.00000000000E+00  0.00000000000E+00  0.39967665951E+01  0.39967665951E+01  0.00000000000E+00 0.  1.
         22   -1    0    0    0    0 -0.00000000000E+00 -0.00000000000E+00 -0.15019294858E+01  0.15019294858E+01  0.00000000000E+00 0.  1.
          4    1    1    2  501    0 -0.11793779654E+01 -0.12951864793E+01  0.25374123522E+01  0.33346366888E+01  0.12700000000E+01 0.  1.
         -4    1    1    2    0  501  0.11793779654E+01  0.12951864793E+01 -0.42575242930E-01  0.21640593921E+01  0.12700000000E+01 0.  1.
<mgrwt>
<rscale>  0 0.21636405E+01</rscale>
<asrwt>0</asrwt>
<pdfrwt beam="1">0</pdfrwt>
<pdfrwt beam="2">0</pdfrwt>
<totfact> 0.29723707E+12</totfact>
</mgrwt>
</event>
<event>
 4    1  0.1750553E+006  0.4501955E+01  0.7546771E-02  0.2190518E+00
         22   -1    0    0    0    0  0.00000000000E+00  0.00000000000E+00  0.35454718161E+00  0.35454718161E+00  0.00000000000E+00 0.  1.
         22   -1    0    0    0    0 -0.00000000000E+00 -0.00000000000E+00 -0.61444897465E+02  0.61444897465E+02  0.00000000000E+00 0. -1.
          4    1    1    2  501    0 -0.13506410122E+01 -0.41024957389E+01 -0.22389858534E+02  0.22837980813E+02  0.12700000000E+01 0.  1.
         -4    1    1    2    0  501  0.13506410122E+01  0.41024957389E+01 -0.38700491748E+02  0.38961463833E+02  0.12700000000E+01 0. -1.
<mgrwt>
<rscale>  0 0.45019554E+01</rscale>
<asrwt>0</asrwt>
<pdfrwt beam="1">0</pdfrwt>
<pdfrwt beam="2">0</pdfrwt>
<totfact> 0.51578755E+11</totfact>
</mgrwt>
</event>
<event>
 4    1  0.1750553E+006  0.3922275E+01  0.7546771E-02  0.2292403E+00
         22   -1    0    0    0    0  0.00000000000E+00  0.00000000000E+00  0.45661382513E+02  0.45661382513E+02  0.00000000000E+00 0.  1.
         22   -1    0    0    0    0 -0.00000000000E+00 -0.00000000000E+00 -0.19654210236E+01  0.19654210236E+01  0.00000000000E+00 0. -1.
          4    1    1    2  501    0  0.34422977458E+01  0.13863352486E+01  0.43524404896E+02  0.43700778721E+02  0.12700000000E+01 0.  1.
         -4    1    1    2    0  501 -0.34422977458E+01 -0.13863352486E+01  0.17155659307E+00  0.39260248161E+01  0.12700000000E+01 0. -1.
<mgrwt>
<rscale>  0 0.39222747E+01</rscale>
<asrwt>0</asrwt>
<pdfrwt beam="1">0</pdfrwt>
<pdfrwt beam="2">0</pdfrwt>
<totfact> 0.10866930E+11</totfact>
</mgrwt>
</event>
<event>
 4    1  0.1750553E+006  0.2761117E+01  0.7546771E-02  0.2603523E+00
         22   -1    0    0    0    0  0.00000000000E+00  0.00000000000E+00  0.23770690191E+01  0.23770690191E+01  0.00000000000E+00 0.  1.
         22   -1    0    0    0    0 -0.00000000000E+00 -0.00000000000E+00 -0.49458960161E+01  0.49458960161E+01  0.00000000000E+00 0. -1.
          4    1    1    2  501    0 -0.24222586047E+01  0.37885292409E+00  0.88651090068E+00  0.28999427345E+01  0.12700000000E+01 0.  1.
         -4    1    1    2    0  501  0.24222586047E+01 -0.37885292409E+00 -0.34553378977E+01  0.44230223008E+01  0.12700000000E+01 0. -1.
<mgrwt>
<rscale>  0 0.27611169E+01</rscale>
<asrwt>0</asrwt>
<pdfrwt beam="1">0</pdfrwt>
<pdfrwt beam="2">0</pdfrwt>
<totfact> 0.13595725E+12</totfact>
</mgrwt>
</event>
<event>
 4    1  0.1750553E+006  0.2628859E+01  0.7546771E-02  0.2654309E+00
         22   -1    0    0    0    0  0.00000000000E+00  0.00000000000E+00  0.23927146266E+02  0.23927146266E+02  0.00000000000E+00 0.  1.
         22   -1    0    0    0    0 -0.00000000000E+00 -0.00000000000E+00 -0.30576243151E+00  0.30576243151E+00  0.00000000000E+00 0. -1.
          4    1    1    2  501    0  0.21998429498E+01  0.67726673079E+00  0.89594662631E+01  0.93371802461E+01  0.12700000000E+01 0. -1.
         -4    1    1    2    0  501 -0.21998429498E+01 -0.67726673079E+00  0.14661917571E+02  0.14895728451E+02  0.12700000000E+01 0. -1.
<mgrwt>
<rscale>  0 0.26288589E+01</rscale>
<asrwt>0</asrwt>
<pdfrwt beam="1">0</pdfrwt>
<pdfrwt beam="2">0</pdfrwt>
<totfact> 0.20676138E+12</totfact>
</mgrwt>
</event>
<event>
 4    1  0.1750553E+006  0.2119142E+01  0.7546771E-02  0.2904699E+00
         22   -1    0    0    0    0  0.00000000000E+00  0.00000000000E+00  0.14500372570E+02  0.14500372570E+02  0.00000000000E+00 0. -1.
         22   -1    0    0    0    0 -0.00000000000E+00 -0.00000000000E+00 -0.36526135821E+00  0.36526135821E+00  0.00000000000E+00 0.  1.
          4    1    1    2  501    0  0.58696805725E+00 -0.15916436535E+01  0.41686159397E+01  0.46763361591E+01  0.12700000000E+01 0.  1.
         -4    1    1    2    0  501 -0.58696805725E+00  0.15916436535E+01  0.99664952720E+01  0.10189297769E+02  0.12700000000E+01 0. -1.
<mgrwt>
<rscale>  0 0.21191416E+01</rscale>
<asrwt>0</asrwt>
<pdfrwt beam="1">0</pdfrwt>
<pdfrwt beam="2">0</pdfrwt>
<totfact> 0.31557603E+12</totfact>
</mgrwt>
</event>
<event>
 4    1  0.1750553E+006  0.2039445E+01  0.7546771E-02  0.2954598E+00
         22   -1    0    0    0    0  0.00000000000E+00  0.00000000000E+00  0.42616738409E+02  0.42616738409E+02  0.00000000000E+00 0. -1.
         22   -1    0    0    0    0 -0.00000000000E+00 -0.00000000000E+00 -0.10155412719E+00  0.10155412719E+00  0.00000000000E+00 0. -1.
          4    1    1    2  501    0 -0.15056056370E+01  0.52875873879E+00  0.17042208391E+02  0.17163804968E+02  0.12700000000E+01 0. -1.
         -4    1    1    2    0  501  0.15056056370E+01 -0.52875873879E+00  0.25472975891E+02  0.25554487569E+02  0.12700000000E+01 0. -1.
<mgrwt>
<rscale>  0 0.20394446E+01</rscale>
<asrwt>0</asrwt>
<pdfrwt beam="1">0</pdfrwt>
<pdfrwt beam="2">0</pdfrwt>
<totfact> 0.33718837E+12</totfact>
</mgrwt>
</event>
<event>
 4    1  0.1750553E+006  0.2328148E+01  0.7546771E-02  0.2789511E+00
         22   -1    0    0    0    0  0.00000000000E+00  0.00000000000E+00  0.71652179278E+01  0.71652179278E+01  0.00000000000E+00 0.  1.
         22   -1    0    0    0    0 -0.00000000000E+00 -0.00000000000E+00 -0.14896518900E+01  0.14896518900E+01  0.00000000000E+00 0. -1.
          4    1    1    2  501    0 -0.19024146898E+01  0.43381214450E+00  0.58737281682E+01  0.63183033500E+01  0.12700000000E+01 0.  1.
         -4    1    1    2    0  501  0.19024146898E+01 -0.43381214450E+00 -0.19816213042E+00  0.23365664678E+01  0.12700000000E+01 0. -1.
<mgrwt>
<rscale>  0 0.23281483E+01</rscale>
<asrwt>0</asrwt>
<pdfrwt beam="1">0</pdfrwt>
<pdfrwt beam="2">0</pdfrwt>
<totfact> 0.15011031E+12</totfact>
</mgrwt>
</event>
<event>
 4    1  0.1750553E+006  0.3336205E+01  0.7546771E-02  0.2425545E+00
         22   -1    0    0    0    0  0.00000000000E+00  0.00000000000E+00  0.45186621122E+00  0.45186621122E+00  0.00000000000E+00 0.  1.
         22   -1    0    0    0    0 -0.00000000000E+00 -0.00000000000E+00 -0.24855427300E+02  0.24855427300E+02  0.00000000000E+00 0. -1.
          4    1    1    2  501    0  0.29427871019E+01 -0.92594109611E+00 -0.11001451326E+02  0.11496181719E+02  0.12700000000E+01 0.  1.
         -4    1    1    2    0  501 -0.29427871019E+01  0.92594109611E+00 -0.13402109763E+02  0.13811111792E+02  0.12700000000E+01 0. -1.
<mgrwt>
<rscale>  0 0.33362049E+01</rscale>
<asrwt>0</asrwt>
<pdfrwt beam="1">0</pdfrwt>
<pdfrwt beam="2">0</pdfrwt>
<totfact> 0.12703147E+12</totfact>
</mgrwt>
</event>
<event>
 4    1  0.1750553E+006  0.5788940E+01  0.7546771E-02  0.2039149E+00
         22   -1    0    0    0    0  0.00000000000E+00  0.00000000000E+00  0.12568077356E+01  0.12568077356E+01  0.00000000000E+00 0.  1.
         22   -1    0    0    0    0 -0.00000000000E+00 -0.00000000000E+00 -0.27837204070E+02  0.27837204070E+02  0.00000000000E+00 0. -1.
          4    1    1    2  501    0  0.29246708869E+01 -0.48316897955E+01 -0.10304109332E+02  0.11818904146E+02  0.12700000000E+01 0.  1.
         -4    1    1    2    0  501 -0.29246708869E+01  0.48316897955E+01 -0.16276287003E+02  0.17275107660E+02  0.12700000000E+01 0. -1.
<mgrwt>
<rscale>  0 0.57889400E+01</rscale>
<asrwt>0</asrwt>
<pdfrwt beam="1">0</pdfrwt>
<pdfrwt beam="2">0</pdfrwt>
<totfact> 0.34410155E+11</totfact>
</mgrwt>
</event>
<event>
 4    1  0.1750553E+006  0.2126462E+01  0.7546771E-02  0.2900298E+00
         22   -1    0    0    0    0  0.00000000000E+00  0.00000000000E+00  0.18758562373E+02  0.18758562373E+02  0.00000000000E+00 0.  1.
         22   -1    0    0    0    0 -0.00000000000E+00 -0.00000000000E+00 -0.24456933896E+00  0.24456933896E+00  0.00000000000E+00 0. -1.
          4    1    1    2  501    0  0.17049509761E+01 -0.45632281480E-01  0.10396020465E+02  0.10611271443E+02  0.12700000000E+01 0.  1.
         -4    1    1    2    0  501 -0.17049509761E+01  0.45632281480E-01  0.81179725693E+01  0.83918602689E+01  0.12700000000E+01 0. -1.
<mgrwt>
<rscale>  0 0.21264619E+01</rscale>
<asrwt>0</asrwt>
<pdfrwt beam="1">0</pdfrwt>
<pdfrwt beam="2">0</pdfrwt>
<totfact> 0.35993873E+12</totfact>
</mgrwt>
</event>
<event>
 4    1  0.1750553E+006  0.3532974E+01  0.7546771E-02  0.2376576E+00
         22   -1    0    0    0    0  0.00000000000E+00  0.00000000000E+00  0.48276947773E+00  0.48276947773E+00  0.00000000000E+00 0. -1.
         22   -1    0    0    0    0 -0.00000000000E+00 -0.00000000000E+00 -0.26017270544E+02  0.26017270544E+02  0.00000000000E+00 0. -1.
          4    1    1    2  501    0  0.31311228776E+01  0.10320260418E+01 -0.13814314396E+02  0.14258933707E+02  0.12700000000E+01 0. -1.
         -4    1    1    2    0  501 -0.31311228776E+01 -0.10320260418E+01 -0.11720186670E+02  0.12241106314E+02  0.12700000000E+01 0. -1.
<mgrwt>
<rscale>  0 0.35329744E+01</rscale>
<asrwt>0</asrwt>
<pdfrwt beam="1">0</pdfrwt>
<pdfrwt beam="2">0</pdfrwt>
<totfact> 0.11128899E+12</totfact>
</mgrwt>
</event>
<event>
 4    1  0.1750553E+006  0.2624035E+01  0.7546771E-02  0.2656250E+00
         22   -1    0    0    0    0  0.00000000000E+00  0.00000000000E+00  0.39894901103E+02  0.39894901103E+02  0.00000000000E+00 0. -1.
         22   -1    0    0    0    0 -0.00000000000E+00 -0.00000000000E+00 -0.17267250790E+00  0.17267250790E+00  0.00000000000E+00 0. -1.
          4    1    1    2  501    0  0.67991555254E+00 -0.21932562919E+01  0.20292515117E+02  0.20461469353E+02  0.12700000000E+01 0. -1.
         -4    1    1    2    0  501 -0.67991555254E+00  0.21932562919E+01  0.19429713478E+02  0.19606104258E+02  0.12700000000E+01 0. -1.
<mgrwt>
<rscale>  0 0.26240347E+01</rscale>
<asrwt>0</asrwt>
<pdfrwt beam="1">0</pdfrwt>
<pdfrwt beam="2">0</pdfrwt>
<totfact> 0.20381569E+12</totfact>
</mgrwt>
</event>
<event>
 4    1  0.1750553E+006  0.3429559E+01  0.7546771E-02  0.2401700E+00
         22   -1    0    0    0    0  0.00000000000E+00  0.00000000000E+00  0.22159091866E+00  0.22159091866E+00  0.00000000000E+00 0. -1.
         22   -1    0    0    0    0 -0.00000000000E+00 -0.00000000000E+00 -0.54243187411E+02  0.54243187411E+02  0.00000000000E+00 0. -1.
          4    1    1    2  501    0  0.28593433304E+01 -0.14046820578E+01 -0.23021640954E+02  0.23275691788E+02  0.12700000000E+01 0. -1.
         -4    1    1    2    0  501 -0.28593433304E+01  0.14046820578E+01 -0.30999955538E+02  0.31189086542E+02  0.12700000000E+01 0. -1.
<mgrwt>
<rscale>  0 0.34295592E+01</rscale>
<asrwt>0</asrwt>
<pdfrwt beam="1">0</pdfrwt>
<pdfrwt beam="2">0</pdfrwt>
<totfact> 0.10312725E+12</totfact>
</mgrwt>
</event>
<event>
 4    1  0.1750553E+006  0.2282554E+01  0.7546771E-02  0.2812920E+00
         22   -1    0    0    0    0  0.00000000000E+00  0.00000000000E+00  0.19720735259E+02  0.19720735259E+02  0.00000000000E+00 0.  1.
         22   -1    0    0    0    0 -0.00000000000E+00 -0.00000000000E+00 -0.27181617036E+00  0.27181617036E+00  0.00000000000E+00 0. -1.
          4    1    1    2  501    0 -0.14930436842E+01 -0.11696035032E+01  0.11398667611E+02  0.11624959145E+02  0.12700000000E+01 0.  1.
         -4    1    1    2    0  501  0.14930436842E+01  0.11696035032E+01  0.80502514777E+01  0.83675922852E+01  0.12700000000E+01 0. -1.
<mgrwt>
<rscale>  0 0.22825538E+01</rscale>
<asrwt>0</asrwt>
<pdfrwt beam="1">0</pdfrwt>
<pdfrwt beam="2">0</pdfrwt>
<totfact> 0.30051833E+12</totfact>
</mgrwt>
</event>
<event>
 4    1  0.1750553E+006  0.2100336E+01  0.7546771E-02  0.2916142E+00
         22   -1    0    0    0    0  0.00000000000E+00  0.00000000000E+00  0.10422938992E+02  0.10422938992E+02  0.00000000000E+00 0. -1.
         22   -1    0    0    0    0 -0.00000000000E+00 -0.00000000000E+00 -0.46885147427E+00  0.46885147427E+00  0.00000000000E+00 0.  1.
          4    1    1    2  501    0  0.15216323330E+01 -0.69508700635E+00  0.66756231886E+01  0.69982394829E+01  0.12700000000E+01 0. -1.
         -4    1    1    2    0  501 -0.15216323330E+01  0.69508700635E+00  0.32784643292E+01  0.38935509835E+01  0.12700000000E+01 0.  1.
<mgrwt>
<rscale>  0 0.21003359E+01</rscale>
<asrwt>0</asrwt>
<pdfrwt beam="1">0</pdfrwt>
<pdfrwt beam="2">0</pdfrwt>
<totfact> 0.35645979E+12</totfact>
</mgrwt>
</event>
<event>
 4    1  0.1750553E+006  0.2048760E+01  0.7546771E-02  0.2948571E+00
         22   -1    0    0    0    0  0.00000000000E+00  0.00000000000E+00  0.24416468624E+01  0.24416468624E+01  0.00000000000E+00 0.  1.
         22   -1    0    0    0    0 -0.00000000000E+00 -0.00000000000E+00 -0.26137505697E+01  0.26137505697E+01  0.00000000000E+00 0.  1.
          4    1    1    2  501    0  0.13344386787E+01  0.89654340208E+00  0.13927902075E+01  0.24773536730E+01  0.12700000000E+01 0.  1.
         -4    1    1    2    0  501 -0.13344386787E+01 -0.89654340208E+00 -0.15648939149E+01  0.25780437591E+01  0.12700000000E+01 0.  1.
<mgrwt>
<rscale>  0 0.20487598E+01</rscale>
<asrwt>0</asrwt>
<pdfrwt beam="1">0</pdfrwt>
<pdfrwt beam="2">0</pdfrwt>
<totfact> 0.27855580E+12</totfact>
</mgrwt>
</event>
<event>
 4    1  0.1750553E+006  0.2193078E+01  0.7546771E-02  0.2861549E+00
         22   -1    0    0    0    0  0.00000000000E+00  0.00000000000E+00  0.90828786491E+01  0.90828786491E+01  0.00000000000E+00 0.  1.
         22   -1    0    0    0    0 -0.00000000000E+00 -0.00000000000E+00 -0.53083999193E+00  0.53083999193E+00  0.00000000000E+00 0.  1.
          4    1    1    2  501    0 -0.17591317204E+01  0.31960595832E+00  0.45154529722E+01  0.50198513845E+01  0.12700000000E+01 0.  1.
         -4    1    1    2    0  501  0.17591317204E+01 -0.31960595832E+00  0.40365856850E+01  0.45938672566E+01  0.12700000000E+01 0.  1.
<mgrwt>
<rscale>  0 0.21930783E+01</rscale>
<asrwt>0</asrwt>
<pdfrwt beam="1">0</pdfrwt>
<pdfrwt beam="2">0</pdfrwt>
<totfact> 0.36595223E+12</totfact>
</mgrwt>
</event>
<event>
 4    1  0.1750553E+006  0.2713877E+01  0.7546771E-02  0.2621143E+00
         22   -1    0    0    0    0  0.00000000000E+00  0.00000000000E+00  0.19662689862E+01  0.19662689862E+01  0.00000000000E+00 0. -1.
         22   -1    0    0    0    0 -0.00000000000E+00 -0.00000000000E+00 -0.86166457911E+01  0.86166457911E+01  0.00000000000E+00 0. -1.
          4    1    1    2  501    0 -0.94790568390E+00  0.22031117294E+01  0.65323665847E+00  0.27913875778E+01  0.12700000000E+01 0. -1.
         -4    1    1    2    0  501  0.94790568390E+00 -0.22031117294E+01 -0.73036134634E+01  0.77915271995E+01  0.12700000000E+01 0. -1.
<mgrwt>
<rscale>  0 0.27138767E+01</rscale>
<asrwt>0</asrwt>
<pdfrwt beam="1">0</pdfrwt>
<pdfrwt beam="2">0</pdfrwt>
<totfact> 0.87326831E+11</totfact>
</mgrwt>
</event>
<event>
 4    1  0.1750553E+006  0.2419977E+01  0.7546771E-02  0.2744897E+00
         22   -1    0    0    0    0  0.00000000000E+00  0.00000000000E+00  0.19125774089E+02  0.19125774089E+02  0.00000000000E+00 0. -1.
         22   -1    0    0    0    0 -0.00000000000E+00 -0.00000000000E+00 -0.33073525047E+00  0.33073525047E+00  0.00000000000E+00 0. -1.
          4    1    1    2  501    0  0.72044546969E-01 -0.20586882633E+01  0.67477922740E+01  0.71686113268E+01  0.12700000000E+01 0. -1.
         -4    1    1    2    0  501 -0.72044546969E-01  0.20586882633E+01  0.12047246564E+02  0.12287898012E+02  0.12700000000E+01 0. -1.
<mgrwt>
<rscale>  0 0.24199768E+01</rscale>
<asrwt>0</asrwt>
<pdfrwt beam="1">0</pdfrwt>
<pdfrwt beam="2">0</pdfrwt>
<totfact> 0.25055926E+12</totfact>
</mgrwt>
</event>
<event>
 4    1  0.1750553E+006  0.2306961E+01  0.7546771E-02  0.2800280E+00
         22   -1    0    0    0    0  0.00000000000E+00  0.00000000000E+00  0.57317222004E+00  0.57317222004E+00  0.00000000000E+00 0.  1.
         22   -1    0    0    0    0 -0.00000000000E+00 -0.00000000000E+00 -0.10245690672E+02  0.10245690672E+02  0.00000000000E+00 0.  1.
          4    1    1    2  501    0  0.17239816474E+01  0.85852084709E+00 -0.31800811216E+01  0.39287385641E+01  0.12700000000E+01 0.  1.
         -4    1    1    2    0  501 -0.17239816474E+01 -0.85852084709E+00 -0.64924373302E+01  0.68901243278E+01  0.12700000000E+01 0.  1.
<mgrwt>
<rscale>  0 0.23069614E+01</rscale>
<asrwt>0</asrwt>
<pdfrwt beam="1">0</pdfrwt>
<pdfrwt beam="2">0</pdfrwt>
<totfact> 0.29005505E+12</totfact>
</mgrwt>
</event>
<event>
 4    1  0.1750553E+006  0.3605557E+01  0.7546771E-02  0.2359694E+00
         22   -1    0    0    0    0  0.00000000000E+00  0.00000000000E+00  0.26187587963E+01  0.26187587963E+01  0.00000000000E+00 0.  1.
         22   -1    0    0    0    0 -0.00000000000E+00 -0.00000000000E+00 -0.61792862639E+01  0.61792862639E+01  0.00000000000E+00 0. -1.
          4    1    1    2  501    0  0.26382074255E+01 -0.21040438051E+01  0.17043784040E+00  0.36095827752E+01  0.12700000000E+01 0.  1.
         -4    1    1    2    0  501 -0.26382074255E+01  0.21040438051E+01 -0.37309653080E+01  0.51884622850E+01  0.12700000000E+01 0. -1.
<mgrwt>
<rscale>  0 0.36055566E+01</rscale>
<asrwt>0</asrwt>
<pdfrwt beam="1">0</pdfrwt>
<pdfrwt beam="2">0</pdfrwt>
<totfact> 0.93254822E+11</totfact>
</mgrwt>
</event>
<event>
 4    1  0.1750553E+006  0.3334187E+01  0.7546771E-02  0.2426074E+00
         22   -1    0    0    0    0  0.00000000000E+00  0.00000000000E+00  0.10032804198E+02  0.10032804198E+02  0.00000000000E+00 0. -1.
         22   -1    0    0    0    0 -0.00000000000E+00 -0.00000000000E+00 -0.15816205346E+01  0.15816205346E+01  0.00000000000E+00 0.  1.
          4    1    1    2  501    0 -0.24551563571E+01  0.18644324596E+01  0.74032784918E+01  0.81194417025E+01  0.12700000000E+01 0. -1.
         -4    1    1    2    0  501  0.24551563571E+01 -0.18644324596E+01  0.10479051721E+01  0.34949830306E+01  0.12700000000E+01 0.  1.
<mgrwt>
<rscale>  0 0.33341867E+01</rscale>
<asrwt>0</asrwt>
<pdfrwt beam="1">0</pdfrwt>
<pdfrwt beam="2">0</pdfrwt>
<totfact> 0.93428742E+11</totfact>
</mgrwt>
</event>
<event>
 4    1  0.1750553E+006  0.2016509E+01  0.7546771E-02  0.2969670E+00
         22   -1    0    0    0    0  0.00000000000E+00  0.00000000000E+00  0.10786455348E+01  0.10786455348E+01  0.00000000000E+00 0. -1.
         22   -1    0    0    0    0 -0.00000000000E+00 -0.00000000000E+00 -0.81666261777E+01  0.81666261777E+01  0.00000000000E+00 0. -1.
          4    1    1    2  501    0  0.15634868797E+01  0.94433382486E-01 -0.15214079959E+00  0.20222402700E+01  0.12700000000E+01 0. -1.
         -4    1    1    2    0  501 -0.15634868797E+01 -0.94433382486E-01 -0.69358398433E+01  0.72230314424E+01  0.12700000000E+01 0. -1.
<mgrwt>
<rscale>  0 0.20165091E+01</rscale>
<asrwt>0</asrwt>
<pdfrwt beam="1">0</pdfrwt>
<pdfrwt beam="2">0</pdfrwt>
<totfact> 0.18579312E+12</totfact>
</mgrwt>
</event>
<event>
 4    1  0.1750553E+006  0.5778676E+01  0.7546771E-02  0.2040124E+00
         22   -1    0    0    0    0  0.00000000000E+00  0.00000000000E+00  0.84192565946E+01  0.84192565946E+01  0.00000000000E+00 0.  1.
         22   -1    0    0    0    0 -0.00000000000E+00 -0.00000000000E+00 -0.41075322001E+01  0.41075322001E+01  0.00000000000E+00 0. -1.
          4    1    1    2  501    0  0.45707940253E+01 -0.32997035001E+01  0.99435484228E+00  0.58636032235E+01  0.12700000000E+01 0.  1.
         -4    1    1    2    0  501 -0.45707940253E+01  0.32997035001E+01  0.33173695523E+01  0.66631855712E+01  0.12700000000E+01 0. -1.
<mgrwt>
<rscale>  0 0.57786764E+01</rscale>
<asrwt>0</asrwt>
<pdfrwt beam="1">0</pdfrwt>
<pdfrwt beam="2">0</pdfrwt>
<totfact> 0.38013959E+11</totfact>
</mgrwt>
</event>
<event>
 4    1  0.1750553E+006  0.2474625E+01  0.7546771E-02  0.2719824E+00
         22   -1    0    0    0    0  0.00000000000E+00  0.00000000000E+00  0.75466404655E+01  0.75466404655E+01  0.00000000000E+00 0.  1.
         22   -1    0    0    0    0 -0.00000000000E+00 -0.00000000000E+00 -0.16122844787E+01  0.16122844787E+01  0.00000000000E+00 0.  1.
          4    1    1    2  501    0 -0.19606516451E+01 -0.81652455150E+00  0.61946568305E+01  0.66706476795E+01  0.12700000000E+01 0.  1.
         -4    1    1    2    0  501  0.19606516451E+01  0.81652455150E+00 -0.26030084377E+00  0.24882772647E+01  0.12700000000E+01 0.  1.
<mgrwt>
<rscale>  0 0.24746247E+01</rscale>
<asrwt>0</asrwt>
<pdfrwt beam="1">0</pdfrwt>
<pdfrwt beam="2">0</pdfrwt>
<totfact> 0.12878774E+12</totfact>
</mgrwt>
</event>
<event>
 4    1  0.1750553E+006  0.2032598E+01  0.7546771E-02  0.2959063E+00
         22   -1    0    0    0    0  0.00000000000E+00  0.00000000000E+00  0.38158933143E+00  0.38158933143E+00  0.00000000000E+00 0.  1.
         22   -1    0    0    0    0 -0.00000000000E+00 -0.00000000000E+00 -0.14528539028E+02  0.14528539028E+02  0.00000000000E+00 0. -1.
          4    1    1    2  501    0 -0.15332759211E+01 -0.40941302720E+00 -0.33104795663E+01  0.38846787559E+01  0.12700000000E+01 0.  1.
         -4    1    1    2    0  501  0.15332759211E+01  0.40941302720E+00 -0.10836470130E+02  0.11025449604E+02  0.12700000000E+01 0. -1.
<mgrwt>
<rscale>  0 0.20325979E+01</rscale>
<asrwt>0</asrwt>
<pdfrwt beam="1">0</pdfrwt>
<pdfrwt beam="2">0</pdfrwt>
<totfact> 0.29970783E+12</totfact>
</mgrwt>
</event>
<event>
 4    1  0.1750553E+006  0.2233953E+01  0.7546771E-02  0.2838873E+00
         22   -1    0    0    0    0  0.00000000000E+00  0.00000000000E+00  0.41425916870E+00  0.41425916870E+00  0.00000000000E+00 0.  1.
         22   -1    0    0    0    0 -0.00000000000E+00 -0.00000000000E+00 -0.32001436666E+02  0.32001436666E+02  0.00000000000E+00 0. -1.
          4    1    1    2  501    0 -0.13958047761E+01  0.11955643559E+01 -0.29950239096E+01  0.37364037953E+01  0.12700000000E+01 0.  1.
         -4    1    1    2    0  501  0.13958047761E+01 -0.11955643559E+01 -0.28592153587E+02  0.28679292039E+02  0.12700000000E+01 0. -1.
<mgrwt>
<rscale>  0 0.22339528E+01</rscale>
<asrwt>0</asrwt>
<pdfrwt beam="1">0</pdfrwt>
<pdfrwt beam="2">0</pdfrwt>
<totfact> 0.10163245E+12</totfact>
</mgrwt>
</event>
<event>
 4    1  0.1750553E+006  0.2107371E+01  0.7546771E-02  0.2911838E+00
         22   -1    0    0    0    0  0.00000000000E+00  0.00000000000E+00  0.17876072056E+01  0.17876072056E+01  0.00000000000E+00 0.  1.
         22   -1    0    0    0    0 -0.00000000000E+00 -0.00000000000E+00 -0.39672608257E+01  0.39672608257E+01  0.00000000000E+00 0. -1.
          4    1    1    2  501    0  0.10786331782E+01  0.12902189575E+01  0.66939161288E+00  0.22111308471E+01  0.12700000000E+01 0.  1.
         -4    1    1    2    0  501 -0.10786331782E+01 -0.12902189575E+01 -0.28490452329E+01  0.35437371842E+01  0.12700000000E+01 0. -1.
<mgrwt>
<rscale>  0 0.21073715E+01</rscale>
<asrwt>0</asrwt>
<pdfrwt beam="1">0</pdfrwt>
<pdfrwt beam="2">0</pdfrwt>
<totfact> 0.24530992E+12</totfact>
</mgrwt>
</event>
<event>
 4    1  0.1750553E+006  0.2650369E+01  0.7546771E-02  0.2645733E+00
         22   -1    0    0    0    0  0.00000000000E+00  0.00000000000E+00  0.11980826001E+01  0.11980826001E+01  0.00000000000E+00 0.  1.
         22   -1    0    0    0    0 -0.00000000000E+00 -0.00000000000E+00 -0.62086298300E+01  0.62086298300E+01  0.00000000000E+00 0. -1.
          4    1    1    2  501    0  0.14545565535E+01 -0.18154396142E+01 -0.33789530059E+01  0.42943892669E+01  0.12700000000E+01 0. -1.
         -4    1    1    2    0  501 -0.14545565535E+01  0.18154396142E+01 -0.16315942241E+01  0.31123231632E+01  0.12700000000E+01 0.  1.
<mgrwt>
<rscale>  0 0.26503690E+01</rscale>
<asrwt>0</asrwt>
<pdfrwt beam="1">0</pdfrwt>
<pdfrwt beam="2">0</pdfrwt>
<totfact> 0.22874597E+12</totfact>
</mgrwt>
</event>
<event>
 4    1  0.1750553E+006  0.2041246E+01  0.7546771E-02  0.2953428E+00
         22   -1    0    0    0    0  0.00000000000E+00  0.00000000000E+00  0.18808415502E+00  0.18808415502E+00  0.00000000000E+00 0. -1.
         22   -1    0    0    0    0 -0.00000000000E+00 -0.00000000000E+00 -0.23708967910E+02  0.23708967910E+02  0.00000000000E+00 0.  1.
          4    1    1    2  501    0 -0.10872239132E+01  0.11712084243E+01 -0.86997737975E+01  0.89360365453E+01  0.12700000000E+01 0. -1.
         -4    1    1    2    0  501  0.10872239132E+01 -0.11712084243E+01 -0.14821109958E+02  0.14961015520E+02  0.12700000000E+01 0.  1.
<mgrwt>
<rscale>  0 0.20412459E+01</rscale>
<asrwt>0</asrwt>
<pdfrwt beam="1">0</pdfrwt>
<pdfrwt beam="2">0</pdfrwt>
<totfact> 0.36006259E+12</totfact>
</mgrwt>
</event>
<event>
 4    1  0.1750553E+006  0.2064346E+01  0.7546771E-02  0.2938604E+00
         22   -1    0    0    0    0  0.00000000000E+00  0.00000000000E+00  0.59846205198E+00  0.59846205198E+00  0.00000000000E+00 0.  1.
         22   -1    0    0    0    0 -0.00000000000E+00 -0.00000000000E+00 -0.71582210834E+01  0.71582210834E+01  0.00000000000E+00 0.  1.
          4    1    1    2  501    0  0.16084956049E+01  0.24772630872E+00 -0.29994508050E+01  0.36411854617E+01  0.12700000000E+01 0.  1.
         -4    1    1    2    0  501 -0.16084956049E+01 -0.24772630872E+00 -0.35603082264E+01  0.41154976737E+01  0.12700000000E+01 0.  1.
<mgrwt>
<rscale>  0 0.20643465E+01</rscale>
<asrwt>0</asrwt>
<pdfrwt beam="1">0</pdfrwt>
<pdfrwt beam="2">0</pdfrwt>
<totfact> 0.42539039E+12</totfact>
</mgrwt>
</event>
<event>
 4    1  0.1750553E+006  0.2617174E+01  0.7546771E-02  0.2659022E+00
         22   -1    0    0    0    0  0.00000000000E+00  0.00000000000E+00  0.20819533643E+00  0.20819533643E+00  0.00000000000E+00 0. -1.
         22   -1    0    0    0    0 -0.00000000000E+00 -0.00000000000E+00 -0.37163257236E+02  0.37163257236E+02  0.00000000000E+00 0.  1.
          4    1    1    2  501    0 -0.13535613679E+01 -0.18451486089E+01 -0.12148606171E+02  0.12427318039E+02  0.12700000000E+01 0. -1.
         -4    1    1    2    0  501  0.13535613679E+01  0.18451486089E+01 -0.24806455729E+02  0.24944134533E+02  0.12700000000E+01 0.  1.
<mgrwt>
<rscale>  0 0.26171744E+01</rscale>
<asrwt>0</asrwt>
<pdfrwt beam="1">0</pdfrwt>
<pdfrwt beam="2">0</pdfrwt>
<totfact> 0.18135659E+12</totfact>
</mgrwt>
</event>
<event>
 4    1  0.1750553E+006  0.2615660E+01  0.7546771E-02  0.2659636E+00
         22   -1    0    0    0    0  0.00000000000E+00  0.00000000000E+00  0.20537533098E+00  0.20537533098E+00  0.00000000000E+00 0.  1.
         22   -1    0    0    0    0 -0.00000000000E+00 -0.00000000000E+00 -0.33976054098E+02  0.33976054098E+02  0.00000000000E+00 0.  1.
          4    1    1    2  501    0  0.19342511780E+01 -0.12196098080E+01 -0.19272802062E+02  0.19449487784E+02  0.12700000000E+01 0.  1.
         -4    1    1    2    0  501 -0.19342511780E+01  0.12196098080E+01 -0.14497876705E+02  0.14731941645E+02  0.12700000000E+01 0.  1.
<mgrwt>
<rscale>  0 0.26156597E+01</rscale>
<asrwt>0</asrwt>
<pdfrwt beam="1">0</pdfrwt>
<pdfrwt beam="2">0</pdfrwt>
<totfact> 0.20667548E+12</totfact>
</mgrwt>
</event>
<event>
 4    1  0.1750553E+006  0.2056415E+01  0.7546771E-02  0.2943658E+00
         22   -1    0    0    0    0  0.00000000000E+00  0.00000000000E+00  0.67848413404E+01  0.67848413404E+01  0.00000000000E+00 0. -1.
         22   -1    0    0    0    0 -0.00000000000E+00 -0.00000000000E+00 -0.62458923852E+00  0.62458923852E+00  0.00000000000E+00 0. -1.
          4    1    1    2  501    0  0.11326029176E+01 -0.11546222109E+01  0.32498765975E+01  0.38458470741E+01  0.12700000000E+01 0. -1.
         -4    1    1    2    0  501 -0.11326029176E+01  0.11546222109E+01  0.29103755044E+01  0.35635835048E+01  0.12700000000E+01 0. -1.
<mgrwt>
<rscale>  0 0.20564148E+01</rscale>
<asrwt>0</asrwt>
<pdfrwt beam="1">0</pdfrwt>
<pdfrwt beam="2">0</pdfrwt>
<totfact> 0.43210696E+12</totfact>
</mgrwt>
</event>
<event>
 4    1  0.1750553E+006  0.2050645E+01  0.7546771E-02  0.2947357E+00
         22   -1    0    0    0    0  0.00000000000E+00  0.00000000000E+00  0.12846129376E+02  0.12846129376E+02  0.00000000000E+00 0. -1.
         22   -1    0    0    0    0 -0.00000000000E+00 -0.00000000000E+00 -0.36316260406E+00  0.36316260406E+00  0.00000000000E+00 0. -1.
          4    1    1    2  501    0  0.59546991381E+00  0.14958816270E+01  0.41673672416E+01  0.46445770515E+01  0.12700000000E+01 0. -1.
         -4    1    1    2    0  501 -0.59546991381E+00 -0.14958816270E+01  0.83155995306E+01  0.85647149289E+01  0.12700000000E+01 0. -1.
<mgrwt>
<rscale>  0 0.20506453E+01</rscale>
<asrwt>0</asrwt>
<pdfrwt beam="1">0</pdfrwt>
<pdfrwt beam="2">0</pdfrwt>
<totfact> 0.36845920E+12</totfact>
</mgrwt>
</event>
<event>
 4    1  0.1750553E+006  0.4226715E+01  0.7546771E-02  0.2235945E+00
         22   -1    0    0    0    0  0.00000000000E+00  0.00000000000E+00  0.17166751144E+02  0.17166751144E+02  0.00000000000E+00 0.  1.
         22   -1    0    0    0    0 -0.00000000000E+00 -0.00000000000E+00 -0.18384331844E+01  0.18384331844E+01  0.00000000000E+00 0. -1.
          4    1    1    2  501    0  0.69869734082E+00 -0.39703956234E+01  0.13923837724E+02  0.14551232812E+02  0.12700000000E+01 0.  1.
         -4    1    1    2    0  501 -0.69869734082E+00  0.39703956234E+01  0.14044802357E+01  0.44539515167E+01  0.12700000000E+01 0. -1.
<mgrwt>
<rscale>  0 0.42267150E+01</rscale>
<asrwt>0</asrwt>
<pdfrwt beam="1">0</pdfrwt>
<pdfrwt beam="2">0</pdfrwt>
<totfact> 0.40699168E+11</totfact>
</mgrwt>
</event>
<event>
 4    1  0.1750553E+006  0.2845403E+01  0.7546771E-02  0.2573413E+00
         22   -1    0    0    0    0  0.00000000000E+00  0.00000000000E+00  0.10764498494E+00  0.10764498494E+00  0.00000000000E+00 0.  1.
         22   -1    0    0    0    0 -0.00000000000E+00 -0.00000000000E+00 -0.76554528505E+02  0.76554528505E+02  0.00000000000E+00 0. -1.
          4    1    1    2  501    0 -0.24338379721E+01 -0.74823023626E+00 -0.33149501754E+02  0.33271395857E+02  0.12700000000E+01 0.  1.
         -4    1    1    2    0  501  0.24338379721E+01  0.74823023626E+00 -0.43297381767E+02  0.43390777633E+02  0.12700000000E+01 0. -1.
<mgrwt>
<rscale>  0 0.28454026E+01</rscale>
<asrwt>0</asrwt>
<pdfrwt beam="1">0</pdfrwt>
<pdfrwt beam="2">0</pdfrwt>
<totfact> 0.14473366E+12</totfact>
</mgrwt>
</event>
<event>
 4    1  0.1750553E+006  0.3332663E+01  0.7546771E-02  0.2426473E+00
         22   -1    0    0    0    0  0.00000000000E+00  0.00000000000E+00  0.22354364222E+01  0.22354364222E+01  0.00000000000E+00 0.  1.
         22   -1    0    0    0    0 -0.00000000000E+00 -0.00000000000E+00 -0.99237561809E+01  0.99237561809E+01  0.00000000000E+00 0.  1.
          4    1    1    2  501    0 -0.24687795718E+01  0.18436028408E+01  0.45191798450E+00  0.33631642650E+01  0.12700000000E+01 0.  1.
         -4    1    1    2    0  501  0.24687795718E+01 -0.18436028408E+01 -0.81402377432E+01  0.87960283381E+01  0.12700000000E+01 0.  1.
<mgrwt>
<rscale>  0 0.33326632E+01</rscale>
<asrwt>0</asrwt>
<pdfrwt beam="1">0</pdfrwt>
<pdfrwt beam="2">0</pdfrwt>
<totfact> 0.63464459E+11</totfact>
</mgrwt>
</event>
<event>
 4    1  0.1750553E+006  0.2540570E+01  0.7546771E-02  0.2690910E+00
         22   -1    0    0    0    0  0.00000000000E+00  0.00000000000E+00  0.15453308361E+01  0.15453308361E+01  0.00000000000E+00 0. -1.
         22   -1    0    0    0    0 -0.00000000000E+00 -0.00000000000E+00 -0.18676301266E+02  0.18676301266E+02  0.00000000000E+00 0.  1.
          4    1    1    2  501    0 -0.19677781379E+00 -0.21915457414E+01  0.34328440671E+00  0.25636572370E+01  0.12700000000E+01 0. -1.
         -4    1    1    2    0  501  0.19677781379E+00  0.21915457414E+01 -0.17474254837E+02  0.17657974865E+02  0.12700000000E+01 0.  1.
<mgrwt>
<rscale>  0 0.25405697E+01</rscale>
<asrwt>0</asrwt>
<pdfrwt beam="1">0</pdfrwt>
<pdfrwt beam="2">0</pdfrwt>
<totfact> 0.44787965E+11</totfact>
</mgrwt>
</event>
<event>
 4    1  0.1750553E+006  0.2154872E+01  0.7546771E-02  0.2883490E+00
         22   -1    0    0    0    0  0.00000000000E+00  0.00000000000E+00  0.21245937042E+02  0.21245937042E+02  0.00000000000E+00 0.  1.
         22   -1    0    0    0    0 -0.00000000000E+00 -0.00000000000E+00 -0.31494550151E+00  0.31494550151E+00  0.00000000000E+00 0. -1.
          4    1    1    2  501    0 -0.63930635347E+00 -0.16192163900E+01  0.16429372844E+02  0.16570086492E+02  0.12700000000E+01 0. -1.
         -4    1    1    2    0  501  0.63930635347E+00  0.16192163900E+01  0.45016186965E+01  0.49907960507E+01  0.12700000000E+01 0.  1.
<mgrwt>
<rscale>  0 0.21548722E+01</rscale>
<asrwt>0</asrwt>
<pdfrwt beam="1">0</pdfrwt>
<pdfrwt beam="2">0</pdfrwt>
<totfact> 0.23215506E+12</totfact>
</mgrwt>
</event>
<event>
 4    1  0.1750553E+006  0.2550213E+01  0.7546771E-02  0.2686798E+00
         22   -1    0    0    0    0  0.00000000000E+00  0.00000000000E+00  0.24564689377E+02  0.24564689377E+02  0.00000000000E+00 0.  1.
         22   -1    0    0    0    0 -0.00000000000E+00 -0.00000000000E+00 -0.26482225525E+00  0.26482225525E+00  0.00000000000E+00 0.  1.
          4    1    1    2  501    0 -0.98734855703E+00 -0.19788451381E+01  0.12350104536E+02  0.12610656894E+02  0.12700000000E+01 0.  1.
         -4    1    1    2    0  501  0.98734855703E+00  0.19788451381E+01  0.11949762586E+02  0.12218854738E+02  0.12700000000E+01 0.  1.
<mgrwt>
<rscale>  0 0.25502128E+01</rscale>
<asrwt>0</asrwt>
<pdfrwt beam="1">0</pdfrwt>
<pdfrwt beam="2">0</pdfrwt>
<totfact> 0.23498277E+12</totfact>
</mgrwt>
</event>
<event>
 4    1  0.1750553E+006  0.2513365E+01  0.7546771E-02  0.2702667E+00
         22   -1    0    0    0    0  0.00000000000E+00  0.00000000000E+00  0.20420017990E+01  0.20420017990E+01  0.00000000000E+00 0.  1.
         22   -1    0    0    0    0 -0.00000000000E+00 -0.00000000000E+00 -0.30936901491E+01  0.30936901491E+01  0.00000000000E+00 0. -1.
          4    1    1    2  501    0  0.15959831891E+01  0.14686521867E+01 -0.50758933388E+00  0.25641077429E+01  0.12700000000E+01 0.  1.
         -4    1    1    2    0  501 -0.15959831891E+01 -0.14686521867E+01 -0.54409901631E+00  0.25715842052E+01  0.12700000000E+01 0. -1.
<mgrwt>
<rscale>  0 0.25133646E+01</rscale>
<asrwt>0</asrwt>
<pdfrwt beam="1">0</pdfrwt>
<pdfrwt beam="2">0</pdfrwt>
<totfact> 0.28157543E+12</totfact>
</mgrwt>
</event>
<event>
 4    1  0.1750553E+006  0.2751391E+01  0.7546771E-02  0.2607106E+00
         22   -1    0    0    0    0  0.00000000000E+00  0.00000000000E+00  0.16519544075E+02  0.16519544075E+02  0.00000000000E+00 0.  1.
         22   -1    0    0    0    0 -0.00000000000E+00 -0.00000000000E+00 -0.54008333393E+00  0.54008333393E+00  0.00000000000E+00 0. -1.
          4    1    1    2  501    0 -0.37131302944E+00  0.24123388751E+01  0.11309919725E+02  0.11639778194E+02  0.12700000000E+01 0.  1.
         -4    1    1    2    0  501  0.37131302944E+00 -0.24123388751E+01  0.46695410159E+01  0.54198492150E+01  0.12700000000E+01 0. -1.
<mgrwt>
<rscale>  0 0.27513910E+01</rscale>
<asrwt>0</asrwt>
<pdfrwt beam="1">0</pdfrwt>
<pdfrwt beam="2">0</pdfrwt>
<totfact> 0.17293479E+12</totfact>
</mgrwt>
</event>
<event>
 4    1  0.1750553E+006  0.2150112E+01  0.7546771E-02  0.2886277E+00
         22   -1    0    0    0    0  0.00000000000E+00  0.00000000000E+00  0.45051351679E+01  0.45051351679E+01  0.00000000000E+00 0. -1.
         22   -1    0    0    0    0 -0.00000000000E+00 -0.00000000000E+00 -0.11032268614E+01  0.11032268614E+01  0.00000000000E+00 0. -1.
          4    1    1    2  501    0 -0.14979371526E+01  0.87536502495E+00  0.24421169921E+01  0.32537539924E+01  0.12700000000E+01 0. -1.
         -4    1    1    2    0  501  0.14979371526E+01 -0.87536502495E+00  0.95979131452E+00  0.23546080369E+01  0.12700000000E+01 0. -1.
<mgrwt>
<rscale>  0 0.21501115E+01</rscale>
<asrwt>0</asrwt>
<pdfrwt beam="1">0</pdfrwt>
<pdfrwt beam="2">0</pdfrwt>
<totfact> 0.36773122E+12</totfact>
</mgrwt>
</event>
<event>
 4    1  0.1750553E+006  0.2728150E+01  0.7546771E-02  0.2615760E+00
         22   -1    0    0    0    0  0.00000000000E+00  0.00000000000E+00  0.28199542679E+01  0.28199542679E+01  0.00000000000E+00 0.  1.
         22   -1    0    0    0    0 -0.00000000000E+00 -0.00000000000E+00 -0.38667707833E+01  0.38667707833E+01  0.00000000000E+00 0. -1.
          4    1    1    2  501    0  0.23173902975E+01  0.67793998634E+00  0.13602793072E+01  0.30484685023E+01  0.12700000000E+01 0.  1.
         -4    1    1    2    0  501 -0.23173902975E+01 -0.67793998634E+00 -0.24070958225E+01  0.36382565488E+01  0.12700000000E+01 0. -1.
<mgrwt>
<rscale>  0 0.27281496E+01</rscale>
<asrwt>0</asrwt>
<pdfrwt beam="1">0</pdfrwt>
<pdfrwt beam="2">0</pdfrwt>
<totfact> 0.14897666E+12</totfact>
</mgrwt>
</event>
<event>
 4    1  0.1750553E+006  0.4830676E+01  0.7546771E-02  0.2143774E+00
         22   -1    0    0    0    0  0.00000000000E+00  0.00000000000E+00  0.30503937074E+01  0.30503937074E+01  0.00000000000E+00 0.  1.
         22   -1    0    0    0    0 -0.00000000000E+00 -0.00000000000E+00 -0.22305129622E+02  0.22305129622E+02  0.00000000000E+00 0. -1.
          4    1    1    2  501    0  0.39298870914E+01 -0.25056974548E+01  0.64890013582E+00  0.48740643894E+01  0.12700000000E+01 0.  1.
         -4    1    1    2    0  501 -0.39298870914E+01  0.25056974548E+01 -0.19903636051E+02  0.20481458940E+02  0.12700000000E+01 0. -1.
<mgrwt>
<rscale>  0 0.48306762E+01</rscale>
<asrwt>0</asrwt>
<pdfrwt beam="1">0</pdfrwt>
<pdfrwt beam="2">0</pdfrwt>
<totfact> 0.16308940E+11</totfact>
</mgrwt>
</event>
<event>
 4    1  0.1750553E+006  0.2857841E+01  0.7546771E-02  0.2569106E+00
         22   -1    0    0    0    0  0.00000000000E+00  0.00000000000E+00  0.29851028030E+00  0.29851028030E+00  0.00000000000E+00 0.  1.
         22   -1    0    0    0    0 -0.00000000000E+00 -0.00000000000E+00 -0.41169752144E+02  0.41169752144E+02  0.00000000000E+00 0. -1.
          4    1    1    2  501    0  0.91294501508E+00 -0.23918371940E+01 -0.84271143562E+01  0.88985116809E+01  0.12700000000E+01 0.  1.
         -4    1    1    2    0  501 -0.91294501508E+00  0.23918371940E+01 -0.32444127508E+02  0.32569750744E+02  0.12700000000E+01 0. -1.
<mgrwt>
<rscale>  0 0.28578408E+01</rscale>
<asrwt>0</asrwt>
<pdfrwt beam="1">0</pdfrwt>
<pdfrwt beam="2">0</pdfrwt>
<totfact> 0.10613796E+12</totfact>
</mgrwt>
</event>
<event>
 4    1  0.1750553E+006  0.2432591E+01  0.7546771E-02  0.2739016E+00
         22   -1    0    0    0    0  0.00000000000E+00  0.00000000000E+00  0.88243450275E+01  0.88243450275E+01  0.00000000000E+00 0.  1.
         22   -1    0    0    0    0 -0.00000000000E+00 -0.00000000000E+00 -0.90751908007E+00  0.90751908007E+00  0.00000000000E+00 0.  1.
          4    1    1    2  501    0 -0.46776903303E+00  0.20213337782E+01  0.64446890963E+01  0.68885060542E+01  0.12700000000E+01 0.  1.
         -4    1    1    2    0  501  0.46776903303E+00 -0.20213337782E+01  0.14721368511E+01  0.28433580534E+01  0.12700000000E+01 0.  1.
<mgrwt>
<rscale>  0 0.24325908E+01</rscale>
<asrwt>0</asrwt>
<pdfrwt beam="1">0</pdfrwt>
<pdfrwt beam="2">0</pdfrwt>
<totfact> 0.20617102E+12</totfact>
</mgrwt>
</event>
<event>
 4    1  0.1750553E+006  0.2655761E+01  0.7546771E-02  0.2643603E+00
         22   -1    0    0    0    0  0.00000000000E+00  0.00000000000E+00  0.18005476057E+00  0.18005476057E+00  0.00000000000E+00 0.  1.
         22   -1    0    0    0    0 -0.00000000000E+00 -0.00000000000E+00 -0.69833199191E+02  0.69833199191E+02  0.00000000000E+00 0. -1.
          4    1    1    2  501    0 -0.68499468887E+00 -0.22295625865E+01 -0.11630451416E+02  0.11929814215E+02  0.12700000000E+01 0.  1.
         -4    1    1    2    0  501  0.68499468887E+00  0.22295625865E+01 -0.58022693014E+02  0.58083439737E+02  0.12700000000E+01 0. -1.
<mgrwt>
<rscale>  0 0.26557611E+01</rscale>
<asrwt>0</asrwt>
<pdfrwt beam="1">0</pdfrwt>
<pdfrwt beam="2">0</pdfrwt>
<totfact> 0.92627603E+11</totfact>
</mgrwt>
</event>
<event>
 4    1  0.1750553E+006  0.2145432E+01  0.7546771E-02  0.2889027E+00
         22   -1    0    0    0    0  0.00000000000E+00  0.00000000000E+00  0.27085932470E+02  0.27085932470E+02  0.00000000000E+00 0.  1.
         22   -1    0    0    0    0 -0.00000000000E+00 -0.00000000000E+00 -0.37734688239E+00  0.37734688239E+00  0.00000000000E+00 0.  1.
          4    1    1    2  501    0 -0.17183714731E+01 -0.19281498759E+00  0.23534758956E+02  0.23632345573E+02  0.12700000000E+01 0.  1.
         -4    1    1    2    0  501  0.17183714731E+01  0.19281498759E+00  0.31738266317E+01  0.38309337800E+01  0.12700000000E+01 0.  1.
<mgrwt>
<rscale>  0 0.21454319E+01</rscale>
<asrwt>0</asrwt>
<pdfrwt beam="1">0</pdfrwt>
<pdfrwt beam="2">0</pdfrwt>
<totfact> 0.13958562E+12</totfact>
</mgrwt>
</event>
<event>
 4    1  0.1750553E+006  0.1284168E+02  0.7546771E-02  0.1681152E+00
         22   -1    0    0    0    0  0.00000000000E+00  0.00000000000E+00  0.19997362068E+02  0.19997362068E+02  0.00000000000E+00 0.  1.
         22   -1    0    0    0    0 -0.00000000000E+00 -0.00000000000E+00 -0.92675576871E+01  0.92675576871E+01  0.00000000000E+00 0. -1.
          4    1    1    2  501    0  0.12757874408E+02  0.72978760857E+00  0.10221737966E+02  0.16413189099E+02  0.12700000000E+01 0.  1.
         -4    1    1    2    0  501 -0.12757874408E+02 -0.72978760857E+00  0.50806641453E+00  0.12851730656E+02  0.12700000000E+01 0. -1.
<mgrwt>
<rscale>  0 0.12841684E+02</rscale>
<asrwt>0</asrwt>
<pdfrwt beam="1">0</pdfrwt>
<pdfrwt beam="2">0</pdfrwt>
<totfact> 0.50001871E+10</totfact>
</mgrwt>
</event>
<event>
 4    1  0.1750553E+006  0.3217713E+01  0.7546771E-02  0.2457557E+00
         22   -1    0    0    0    0  0.00000000000E+00  0.00000000000E+00  0.80993195133E+01  0.80993195133E+01  0.00000000000E+00 0. -1.
         22   -1    0    0    0    0 -0.00000000000E+00 -0.00000000000E+00 -0.22925225289E+01  0.22925225289E+01  0.00000000000E+00 0.  1.
          4    1    1    2  501    0  0.12757791456E+01 -0.26670520658E+01  0.63593204643E+01  0.71270355631E+01  0.12700000000E+01 0. -1.
         -4    1    1    2    0  501 -0.12757791456E+01  0.26670520658E+01 -0.55252347983E+00  0.32648064791E+01  0.12700000000E+01 0.  1.
<mgrwt>
<rscale>  0 0.32177133E+01</rscale>
<asrwt>0</asrwt>
<pdfrwt beam="1">0</pdfrwt>
<pdfrwt beam="2">0</pdfrwt>
<totfact> 0.78747765E+11</totfact>
</mgrwt>
</event>
<event>
 4    1  0.1750553E+006  0.2378585E+01  0.7546771E-02  0.2764605E+00
         22   -1    0    0    0    0  0.00000000000E+00  0.00000000000E+00  0.15713322073E+01  0.15713322073E+01  0.00000000000E+00 0.  1.
         22   -1    0    0    0    0 -0.00000000000E+00 -0.00000000000E+00 -0.37341130154E+01  0.37341130154E+01  0.00000000000E+00 0.  1.
          4    1    1    2  501    0 -0.18263233210E+01 -0.84220401133E+00 -0.15830819451E+01  0.28572386870E+01  0.12700000000E+01 0.  1.
         -4    1    1    2    0  501  0.18263233210E+01  0.84220401133E+00 -0.57969886291E+00  0.24482065357E+01  0.12700000000E+01 0.  1.
<mgrwt>
<rscale>  0 0.23785846E+01</rscale>
<asrwt>0</asrwt>
<pdfrwt beam="1">0</pdfrwt>
<pdfrwt beam="2">0</pdfrwt>
<totfact> 0.30566164E+12</totfact>
</mgrwt>
</event>
<event>
 4    1  0.1750553E+006  0.2491035E+01  0.7546771E-02  0.2712496E+00
         22   -1    0    0    0    0  0.00000000000E+00  0.00000000000E+00  0.12150673582E+01  0.12150673582E+01  0.00000000000E+00 0.  1.
         22   -1    0    0    0    0 -0.00000000000E+00 -0.00000000000E+00 -0.61062380216E+01  0.61062380216E+01  0.00000000000E+00 0. -1.
          4    1    1    2  501    0 -0.21334777800E+01 -0.20156665710E+00 -0.96469577636E+00  0.26713095096E+01  0.12700000000E+01 0.  1.
         -4    1    1    2    0  501  0.21334777800E+01  0.20156665710E+00 -0.39264748870E+01  0.46499958702E+01  0.12700000000E+01 0. -1.
<mgrwt>
<rscale>  0 0.24910352E+01</rscale>
<asrwt>0</asrwt>
<pdfrwt beam="1">0</pdfrwt>
<pdfrwt beam="2">0</pdfrwt>
<totfact> 0.22958715E+12</totfact>
</mgrwt>
</event>
<event>
 4    1  0.1750553E+006  0.2268306E+01  0.7546771E-02  0.2820419E+00
         22   -1    0    0    0    0  0.00000000000E+00  0.00000000000E+00  0.17125401123E+01  0.17125401123E+01  0.00000000000E+00 0.  1.
         22   -1    0    0    0    0 -0.00000000000E+00 -0.00000000000E+00 -0.69057874980E+01  0.69057874980E+01  0.00000000000E+00 0. -1.
          4    1    1    2  501    0 -0.18268495344E+01  0.44151019255E+00  0.64225107325E+00  0.23574768106E+01  0.12700000000E+01 0.  1.
         -4    1    1    2    0  501  0.18268495344E+01 -0.44151019255E+00 -0.58354984590E+01  0.62608507997E+01  0.12700000000E+01 0. -1.
<mgrwt>
<rscale>  0 0.22683056E+01</rscale>
<asrwt>0</asrwt>
<pdfrwt beam="1">0</pdfrwt>
<pdfrwt beam="2">0</pdfrwt>
<totfact> 0.13359872E+12</totfact>
</mgrwt>
</event>
<event>
 4    1  0.1750553E+006  0.2573840E+01  0.7546771E-02  0.2676845E+00
         22   -1    0    0    0    0  0.00000000000E+00  0.00000000000E+00  0.23282543710E+01  0.23282543710E+01  0.00000000000E+00 0.  1.
         22   -1    0    0    0    0 -0.00000000000E+00 -0.00000000000E+00 -0.29929848549E+01  0.29929848549E+01  0.00000000000E+00 0.  1.
          4    1    1    2  501    0  0.21511057242E+01  0.62007767503E+00 -0.92332008895E+00  0.27344418345E+01  0.12700000000E+01 0.  1.
         -4    1    1    2    0  501 -0.21511057242E+01 -0.62007767503E+00  0.25858960511E+00  0.25867973913E+01  0.12700000000E+01 0.  1.
<mgrwt>
<rscale>  0 0.25738400E+01</rscale>
<asrwt>0</asrwt>
<pdfrwt beam="1">0</pdfrwt>
<pdfrwt beam="2">0</pdfrwt>
<totfact> 0.25137543E+12</totfact>
</mgrwt>
</event>
<event>
 4    1  0.1750553E+006  0.2254453E+01  0.7546771E-02  0.2827795E+00
         22   -1    0    0    0    0  0.00000000000E+00  0.00000000000E+00  0.62754788828E+00  0.62754788828E+00  0.00000000000E+00 0. -1.
         22   -1    0    0    0    0 -0.00000000000E+00 -0.00000000000E+00 -0.89132618220E+01  0.89132618220E+01  0.00000000000E+00 0.  1.
          4    1    1    2  501    0 -0.15767579695E+01 -0.99171192748E+00 -0.27010783214E+01  0.35182925318E+01  0.12700000000E+01 0.  1.
         -4    1    1    2    0  501  0.15767579695E+01  0.99171192748E+00 -0.55846356124E+01  0.60225171784E+01  0.12700000000E+01 0. -1.
<mgrwt>
<rscale>  0 0.22544530E+01</rscale>
<asrwt>0</asrwt>
<pdfrwt beam="1">0</pdfrwt>
<pdfrwt beam="2">0</pdfrwt>
<totfact> 0.30977784E+12</totfact>
</mgrwt>
</event>
<event>
 4    1  0.1750553E+006  0.2997885E+01  0.7546771E-02  0.2522849E+00
         22   -1    0    0    0    0  0.00000000000E+00  0.00000000000E+00  0.28894991285E+01  0.28894991285E+01  0.00000000000E+00 0.  1.
         22   -1    0    0    0    0 -0.00000000000E+00 -0.00000000000E+00 -0.36613764933E+01  0.36613764933E+01  0.00000000000E+00 0. -1.
          4    1    1    2  501    0  0.90331908091E+00  0.25609435881E+01  0.88474759408E+00  0.31257152347E+01  0.12700000000E+01 0.  1.
         -4    1    1    2    0  501 -0.90331908091E+00 -0.25609435881E+01 -0.16566249589E+01  0.34251603871E+01  0.12700000000E+01 0. -1.
<mgrwt>
<rscale>  0 0.29978855E+01</rscale>
<asrwt>0</asrwt>
<pdfrwt beam="1">0</pdfrwt>
<pdfrwt beam="2">0</pdfrwt>
<totfact> 0.15439211E+12</totfact>
</mgrwt>
</event>
<event>
 4    1  0.1750553E+006  0.2220980E+01  0.7546771E-02  0.2845983E+00
         22   -1    0    0    0    0  0.00000000000E+00  0.00000000000E+00  0.42811356732E-01  0.42811356732E-01  0.00000000000E+00 0.  1.
         22   -1    0    0    0    0 -0.00000000000E+00 -0.00000000000E+00 -0.11787896955E+03  0.11787896955E+03  0.00000000000E+00 0. -1.
          4    1    1    2  501    0  0.49638883435E+00  0.17531259492E+01 -0.50063880982E+02  0.50113121350E+02  0.12700000000E+01 0.  1.
         -4    1    1    2    0  501 -0.49638883435E+00 -0.17531259492E+01 -0.67772277214E+02  0.67808659560E+02  0.12700000000E+01 0. -1.
<mgrwt>
<rscale>  0 0.22209801E+01</rscale>
<asrwt>0</asrwt>
<pdfrwt beam="1">0</pdfrwt>
<pdfrwt beam="2">0</pdfrwt>
<totfact> 0.21856789E+12</totfact>
</mgrwt>
</event>
<event>
 4    1  0.1750553E+006  0.2560065E+01  0.7546771E-02  0.2682628E+00
         22   -1    0    0    0    0  0.00000000000E+00  0.00000000000E+00  0.24642423509E+01  0.24642423509E+01  0.00000000000E+00 0. -1.
         22   -1    0    0    0    0 -0.00000000000E+00 -0.00000000000E+00 -0.37164321140E+01  0.37164321140E+01  0.00000000000E+00 0.  1.
          4    1    1    2  501    0  0.22103779509E+01  0.23507422785E+00  0.10218517249E+01  0.27564672184E+01  0.12700000000E+01 0. -1.
         -4    1    1    2    0  501 -0.22103779509E+01 -0.23507422785E+00 -0.22740414880E+01  0.34242072466E+01  0.12700000000E+01 0.  1.
<mgrwt>
<rscale>  0 0.25600646E+01</rscale>
<asrwt>0</asrwt>
<pdfrwt beam="1">0</pdfrwt>
<pdfrwt beam="2">0</pdfrwt>
<totfact> 0.18262084E+12</totfact>
</mgrwt>
</event>
<event>
 4    1  0.1750553E+006  0.2085218E+01  0.7546771E-02  0.2925486E+00
         22   -1    0    0    0    0  0.00000000000E+00  0.00000000000E+00  0.49470393838E+01  0.49470393838E+01  0.00000000000E+00 0. -1.
         22   -1    0    0    0    0 -0.00000000000E+00 -0.00000000000E+00 -0.41036510026E+01  0.41036510026E+01  0.00000000000E+00 0.  1.
          4    1    1    2  501    0 -0.14591627970E+01  0.77850930683E+00  0.44332436204E+01  0.48991613371E+01  0.12700000000E+01 0. -1.
         -4    1    1    2    0  501  0.14591627970E+01 -0.77850930683E+00 -0.35898552392E+01  0.41515290494E+01  0.12700000000E+01 0.  1.
<mgrwt>
<rscale>  0 0.20852177E+01</rscale>
<asrwt>0</asrwt>
<pdfrwt beam="1">0</pdfrwt>
<pdfrwt beam="2">0</pdfrwt>
<totfact> 0.71768412E+11</totfact>
</mgrwt>
</event>
<event>
 4    1  0.1750553E+006  0.2587946E+01  0.7546771E-02  0.2670983E+00
         22   -1    0    0    0    0  0.00000000000E+00  0.00000000000E+00  0.39573471026E+00  0.39573471026E+00  0.00000000000E+00 0. -1.
         22   -1    0    0    0    0 -0.00000000000E+00 -0.00000000000E+00 -0.18890914292E+02  0.18890914292E+02  0.00000000000E+00 0. -1.
          4    1    1    2  501    0 -0.58992578571E+00  0.21763624713E+01 -0.12359152502E+02  0.12627197496E+02  0.12700000000E+01 0. -1.
         -4    1    1    2    0  501  0.58992578571E+00 -0.21763624713E+01 -0.61360270802E+01  0.66594515066E+01  0.12700000000E+01 0. -1.
<mgrwt>
<rscale>  0 0.25879463E+01</rscale>
<asrwt>0</asrwt>
<pdfrwt beam="1">0</pdfrwt>
<pdfrwt beam="2">0</pdfrwt>
<totfact> 0.20797007E+12</totfact>
</mgrwt>
</event>
<event>
 4    1  0.1750553E+006  0.2218817E+01  0.7546771E-02  0.2847176E+00
         22   -1    0    0    0    0  0.00000000000E+00  0.00000000000E+00  0.16819585314E+01  0.16819585314E+01  0.00000000000E+00 0.  1.
         22   -1    0    0    0    0 -0.00000000000E+00 -0.00000000000E+00 -0.29270396531E+01  0.29270396531E+01  0.00000000000E+00 0.  1.
          4    1    1    2  501    0  0.80939973628E+00 -0.16294545383E+01 -0.61937480582E+00  0.23036438908E+01  0.12700000000E+01 0.  1.
         -4    1    1    2    0  501 -0.80939973628E+00  0.16294545383E+01 -0.62570631589E+00  0.23053542936E+01  0.12700000000E+01 0.  1.
<mgrwt>
<rscale>  0 0.22188173E+01</rscale>
<asrwt>0</asrwt>
<pdfrwt beam="1">0</pdfrwt>
<pdfrwt beam="2">0</pdfrwt>
<totfact> 0.37585746E+12</totfact>
</mgrwt>
</event>
<event>
 4    1  0.1750553E+006  0.4235283E+01  0.7546771E-02  0.2234456E+00
         22   -1    0    0    0    0  0.00000000000E+00  0.00000000000E+00  0.63728537853E+00  0.63728537853E+00  0.00000000000E+00 0. -1.
         22   -1    0    0    0    0 -0.00000000000E+00 -0.00000000000E+00 -0.38781337910E+02  0.38781337910E+02  0.00000000000E+00 0.  1.
          4    1    1    2  501    0  0.19263211797E+01 -0.35516204711E+01 -0.87511421387E+01  0.97221453388E+01  0.12700000000E+01 0.  1.
         -4    1    1    2    0  501 -0.19263211797E+01  0.35516204711E+01 -0.29392910393E+02  0.29696477950E+02  0.12700000000E+01 0. -1.
<mgrwt>
<rscale>  0 0.42352829E+01</rscale>
<asrwt>0</asrwt>
<pdfrwt beam="1">0</pdfrwt>
<pdfrwt beam="2">0</pdfrwt>
<totfact> 0.48789146E+11</totfact>
</mgrwt>
</event>
<event>
 4    1  0.1750553E+006  0.2929000E+01  0.7546771E-02  0.2545104E+00
         22   -1    0    0    0    0  0.00000000000E+00  0.00000000000E+00  0.36312733585E+02  0.36312733585E+02  0.00000000000E+00 0.  1.
         22   -1    0    0    0    0 -0.00000000000E+00 -0.00000000000E+00 -0.65533337294E+00  0.65533337294E+00  0.00000000000E+00 0. -1.
          4    1    1    2  501    0 -0.24762991668E+01 -0.91328087374E+00  0.32610032739E+02  0.32741308385E+02  0.12700000000E+01 0.  1.
         -4    1    1    2    0  501  0.24762991668E+01  0.91328087374E+00  0.30473674728E+01  0.42267585728E+01  0.12700000000E+01 0. -1.
<mgrwt>
<rscale>  0 0.29289997E+01</rscale>
<asrwt>0</asrwt>
<pdfrwt beam="1">0</pdfrwt>
<pdfrwt beam="2">0</pdfrwt>
<totfact> 0.51461460E+11</totfact>
</mgrwt>
</event>
<event>
 4    1  0.1750553E+006  0.3643095E+01  0.7546771E-02  0.2351193E+00
         22   -1    0    0    0    0  0.00000000000E+00  0.00000000000E+00  0.42684499575E+02  0.42684499575E+02  0.00000000000E+00 0.  1.
         22   -1    0    0    0    0 -0.00000000000E+00 -0.00000000000E+00 -0.23511852204E+01  0.23511852204E+01  0.00000000000E+00 0. -1.
          4    1    1    2  501    0 -0.22548147455E+01  0.25641870612E+01  0.41142768092E+02  0.41303746937E+02  0.12700000000E+01 0.  1.
         -4    1    1    2    0  501  0.22548147455E+01 -0.25641870612E+01 -0.80945373731E+00  0.37319378578E+01  0.12700000000E+01 0. -1.
<mgrwt>
<rscale>  0 0.36430955E+01</rscale>
<asrwt>0</asrwt>
<pdfrwt beam="1">0</pdfrwt>
<pdfrwt beam="2">0</pdfrwt>
<totfact> 0.96414104E+10</totfact>
</mgrwt>
</event>
<event>
 4    1  0.1750553E+006  0.4011963E+01  0.7546771E-02  0.2275014E+00
         22   -1    0    0    0    0  0.00000000000E+00  0.00000000000E+00  0.30717413320E+01  0.30717413320E+01  0.00000000000E+00 0.  1.
         22   -1    0    0    0    0 -0.00000000000E+00 -0.00000000000E+00 -0.57106643796E+01  0.57106643796E+01  0.00000000000E+00 0. -1.
          4    1    1    2  501    0  0.36906512197E+01  0.92846063981E+00 -0.58773254021E-01  0.40123932858E+01  0.12700000000E+01 0. -1.
         -4    1    1    2    0  501 -0.36906512197E+01 -0.92846063981E+00 -0.25801497935E+01  0.47700124258E+01  0.12700000000E+01 0.  1.
<mgrwt>
<rscale>  0 0.40119628E+01</rscale>
<asrwt>0</asrwt>
<pdfrwt beam="1">0</pdfrwt>
<pdfrwt beam="2">0</pdfrwt>
<totfact> 0.85035015E+11</totfact>
</mgrwt>
</event>
<event>
 4    1  0.1750553E+006  0.2376050E+01  0.7546771E-02  0.2765833E+00
         22   -1    0    0    0    0  0.00000000000E+00  0.00000000000E+00  0.36945980538E+00  0.36945980538E+00  0.00000000000E+00 0.  1.
         22   -1    0    0    0    0 -0.00000000000E+00 -0.00000000000E+00 -0.15292573863E+02  0.15292573863E+02  0.00000000000E+00 0.  1.
          4    1    1    2  501    0 -0.43940620638E+00 -0.19594990241E+01 -0.72435910769E+01  0.76233343052E+01  0.12700000000E+01 0.  1.
         -4    1    1    2    0  501  0.43940620638E+00  0.19594990241E+01 -0.76795229803E+01  0.80386993628E+01  0.12700000000E+01 0.  1.
<mgrwt>
<rscale>  0 0.23760501E+01</rscale>
<asrwt>0</asrwt>
<pdfrwt beam="1">0</pdfrwt>
<pdfrwt beam="2">0</pdfrwt>
<totfact> 0.29182644E+12</totfact>
</mgrwt>
</event>
<event>
 4    1  0.1750553E+006  0.2562287E+01  0.7546771E-02  0.2681691E+00
         22   -1    0    0    0    0  0.00000000000E+00  0.00000000000E+00  0.57138555556E+00  0.57138555556E+00  0.00000000000E+00 0. -1.
         22   -1    0    0    0    0 -0.00000000000E+00 -0.00000000000E+00 -0.11985344018E+02  0.11985344018E+02  0.00000000000E+00 0.  1.
          4    1    1    2  501    0 -0.22083704368E+01  0.27480179883E+00 -0.44308310563E+01  0.51183571450E+01  0.12700000000E+01 0. -1.
         -4    1    1    2    0  501  0.22083704368E+01 -0.27480179883E+00 -0.69831274066E+01  0.74383724289E+01  0.12700000000E+01 0.  1.
<mgrwt>
<rscale>  0 0.25622873E+01</rscale>
<asrwt>0</asrwt>
<pdfrwt beam="1">0</pdfrwt>
<pdfrwt beam="2">0</pdfrwt>
<totfact> 0.24056544E+12</totfact>
</mgrwt>
</event>
<event>
 4    1  0.1750553E+006  0.2387049E+01  0.7546771E-02  0.2760522E+00
         22   -1    0    0    0    0  0.00000000000E+00  0.00000000000E+00  0.96779640859E+00  0.96779640859E+00  0.00000000000E+00 0.  1.
         22   -1    0    0    0    0 -0.00000000000E+00 -0.00000000000E+00 -0.14027484341E+02  0.14027484341E+02  0.00000000000E+00 0. -1.
          4    1    1    2  501    0 -0.47516861853E+00  0.19645150274E+01 -0.81842984908E+00  0.25234563453E+01  0.12700000000E+01 0.  1.
         -4    1    1    2    0  501  0.47516861853E+00 -0.19645150274E+01 -0.12241258083E+02  0.12471824404E+02  0.12700000000E+01 0. -1.
<mgrwt>
<rscale>  0 0.23870493E+01</rscale>
<asrwt>0</asrwt>
<pdfrwt beam="1">0</pdfrwt>
<pdfrwt beam="2">0</pdfrwt>
<totfact> 0.10904476E+12</totfact>
</mgrwt>
</event>
<event>
 4    1  0.1750553E+006  0.2736210E+01  0.7546771E-02  0.2612744E+00
         22   -1    0    0    0    0  0.00000000000E+00  0.00000000000E+00  0.22436622489E+00  0.22436622489E+00  0.00000000000E+00 0. -1.
         22   -1    0    0    0    0 -0.00000000000E+00 -0.00000000000E+00 -0.35002145705E+02  0.35002145705E+02  0.00000000000E+00 0. -1.
          4    1    1    2  501    0  0.20014058032E+01  0.13668641279E+01 -0.13584151152E+02  0.13856983988E+02  0.12700000000E+01 0. -1.
         -4    1    1    2    0  501 -0.20014058032E+01 -0.13668641279E+01 -0.21193628328E+02  0.21369527941E+02  0.12700000000E+01 0. -1.
<mgrwt>
<rscale>  0 0.27362096E+01</rscale>
<asrwt>0</asrwt>
<pdfrwt beam="1">0</pdfrwt>
<pdfrwt beam="2">0</pdfrwt>
<totfact> 0.18021860E+12</totfact>
</mgrwt>
</event>
<event>
 4    1  0.1750553E+006  0.2828580E+01  0.7546771E-02  0.2579293E+00
         22   -1    0    0    0    0  0.00000000000E+00  0.00000000000E+00  0.35096418607E+02  0.35096418607E+02  0.00000000000E+00 0. -1.
         22   -1    0    0    0    0 -0.00000000000E+00 -0.00000000000E+00 -0.22890618003E+00  0.22890618003E+00  0.00000000000E+00 0.  1.
          4    1    1    2  501    0 -0.98379129826E+00 -0.23281148815E+01  0.18564450051E+02  0.18778702562E+02  0.12700000000E+01 0. -1.
         -4    1    1    2    0  501  0.98379129826E+00  0.23281148815E+01  0.16303062376E+02  0.16546622225E+02  0.12700000000E+01 0. -1.
<mgrwt>
<rscale>  0 0.28285799E+01</rscale>
<asrwt>0</asrwt>
<pdfrwt beam="1">0</pdfrwt>
<pdfrwt beam="2">0</pdfrwt>
<totfact> 0.17562188E+12</totfact>
</mgrwt>
</event>
<event>
 4    1  0.1750553E+006  0.2892522E+01  0.7546771E-02  0.2557275E+00
         22   -1    0    0    0    0  0.00000000000E+00  0.00000000000E+00  0.14007720708E+00  0.14007720708E+00  0.00000000000E+00 0. -1.
         22   -1    0    0    0    0 -0.00000000000E+00 -0.00000000000E+00 -0.61290603220E+02  0.61290603220E+02  0.00000000000E+00 0.  1.
          4    1    1    2  501    0  0.31961534639E-02 -0.25988025870E+01 -0.25672620472E+02  0.25835056164E+02  0.12700000000E+01 0. -1.
         -4    1    1    2    0  501 -0.31961534639E-02  0.25988025870E+01 -0.35477905541E+02  0.35595624263E+02  0.12700000000E+01 0.  1.
<mgrwt>
<rscale>  0 0.28925223E+01</rscale>
<asrwt>0</asrwt>
<pdfrwt beam="1">0</pdfrwt>
<pdfrwt beam="2">0</pdfrwt>
<totfact> 0.14604159E+12</totfact>
</mgrwt>
</event>
<event>
 4    1  0.1750553E+006  0.3488007E+01  0.7546771E-02  0.2387341E+00
         22   -1    0    0    0    0  0.00000000000E+00  0.00000000000E+00  0.59605421875E+00  0.59605421875E+00  0.00000000000E+00 0. -1.
         22   -1    0    0    0    0 -0.00000000000E+00 -0.00000000000E+00 -0.39489795658E+02  0.39489795658E+02  0.00000000000E+00 0.  1.
          4    1    1    2  501    0 -0.17561249813E+01 -0.27330051292E+01 -0.55155700447E+01  0.65259255975E+01  0.12700000000E+01 0. -1.
         -4    1    1    2    0  501  0.17561249813E+01  0.27330051292E+01 -0.33378171394E+02  0.33559924279E+02  0.12700000000E+01 0.  1.
<mgrwt>
<rscale>  0 0.34880069E+01</rscale>
<asrwt>0</asrwt>
<pdfrwt beam="1">0</pdfrwt>
<pdfrwt beam="2">0</pdfrwt>
<totfact> 0.51409126E+11</totfact>
</mgrwt>
</event>
<event>
 4    1  0.1750553E+006  0.2014286E+01  0.7546771E-02  0.2971149E+00
         22   -1    0    0    0    0  0.00000000000E+00  0.00000000000E+00  0.65270199637E+02  0.65270199637E+02  0.00000000000E+00 0. -1.
         22   -1    0    0    0    0 -0.00000000000E+00 -0.00000000000E+00 -0.14278447679E+00  0.14278447679E+00  0.00000000000E+00 0.  1.
          4    1    1    2  501    0 -0.15300949126E+01  0.32133788018E+00  0.57140240500E+02  0.57175732902E+02  0.12700000000E+01 0. -1.
         -4    1    1    2    0  501  0.15300949126E+01 -0.32133788018E+00  0.79871746601E+01  0.82372512117E+01  0.12700000000E+01 0.  1.
<mgrwt>
<rscale>  0 0.20142861E+01</rscale>
<asrwt>0</asrwt>
<pdfrwt beam="1">0</pdfrwt>
<pdfrwt beam="2">0</pdfrwt>
<totfact> 0.13135364E+12</totfact>
</mgrwt>
</event>
<event>
 4    1  0.1750553E+006  0.2112997E+01  0.7546771E-02  0.2908416E+00
         22   -1    0    0    0    0  0.00000000000E+00  0.00000000000E+00  0.62274247539E+00  0.62274247539E+00  0.00000000000E+00 0.  1.
         22   -1    0    0    0    0 -0.00000000000E+00 -0.00000000000E+00 -0.12333520661E+02  0.12333520661E+02  0.00000000000E+00 0. -1.
          4    1    1    2  501    0  0.82659470098E+00  0.14726164118E+01 -0.16635960674E+01  0.26892954043E+01  0.12700000000E+01 0.  1.
         -4    1    1    2    0  501 -0.82659470098E+00 -0.14726164118E+01 -0.10047182118E+02  0.10266967732E+02  0.12700000000E+01 0. -1.
<mgrwt>
<rscale>  0 0.21129974E+01</rscale>
<asrwt>0</asrwt>
<pdfrwt beam="1">0</pdfrwt>
<pdfrwt beam="2">0</pdfrwt>
<totfact> 0.21072146E+12</totfact>
</mgrwt>
</event>
<event>
 4    1  0.1750553E+006  0.2304046E+01  0.7546771E-02  0.2801776E+00
         22   -1    0    0    0    0  0.00000000000E+00  0.00000000000E+00  0.10893991968E+01  0.10893991968E+01  0.00000000000E+00 0. -1.
         22   -1    0    0    0    0 -0.00000000000E+00 -0.00000000000E+00 -0.92043861724E+01  0.92043861724E+01  0.00000000000E+00 0. -1.
          4    1    1    2  501    0  0.10607018255E+01 -0.16033214880E+01 -0.52678549674E+00  0.23634997601E+01  0.12700000000E+01 0. -1.
         -4    1    1    2    0  501 -0.10607018255E+01  0.16033214880E+01 -0.75882014789E+01  0.79302856090E+01  0.12700000000E+01 0. -1.
<mgrwt>
<rscale>  0 0.23040460E+01</rscale>
<asrwt>0</asrwt>
<pdfrwt beam="1">0</pdfrwt>
<pdfrwt beam="2">0</pdfrwt>
<totfact> 0.15905397E+12</totfact>
</mgrwt>
</event>
<event>
 4    1  0.1750553E+006  0.2090403E+01  0.7546771E-02  0.2922266E+00
         22   -1    0    0    0    0  0.00000000000E+00  0.00000000000E+00  0.82833595789E+00  0.82833595789E+00  0.00000000000E+00 0. -1.
         22   -1    0    0    0    0 -0.00000000000E+00 -0.00000000000E+00 -0.52798466694E+01  0.52798466694E+01  0.00000000000E+00 0. -1.
          4    1    1    2  501    0  0.15814695989E+00  0.16528385177E+01 -0.21369087874E+01  0.29893418661E+01  0.12700000000E+01 0. -1.
         -4    1    1    2    0  501 -0.15814695989E+00 -0.16528385177E+01 -0.23146019241E+01  0.31188407612E+01  0.12700000000E+01 0. -1.
<mgrwt>
<rscale>  0 0.20904032E+01</rscale>
<asrwt>0</asrwt>
<pdfrwt beam="1">0</pdfrwt>
<pdfrwt beam="2">0</pdfrwt>
<totfact> 0.42267197E+12</totfact>
</mgrwt>
</event>
<event>
 4    1  0.1750553E+006  0.2673139E+01  0.7546771E-02  0.2636793E+00
         22   -1    0    0    0    0  0.00000000000E+00  0.00000000000E+00  0.55542102937E+01  0.55542102937E+01  0.00000000000E+00 0. -1.
         22   -1    0    0    0    0 -0.00000000000E+00 -0.00000000000E+00 -0.52355446479E+02  0.52355446479E+02  0.00000000000E+00 0.  1.
          4    1    1    2  501    0 -0.10078763229E+01 -0.21253137851E+01  0.51962433825E+01  0.58435108161E+01  0.12700000000E+01 0. -1.
         -4    1    1    2    0  501  0.10078763229E+01  0.21253137851E+01 -0.51997479568E+02  0.52066145956E+02  0.12700000000E+01 0.  1.
<mgrwt>
<rscale>  0 0.26731392E+01</rscale>
<asrwt>0</asrwt>
<pdfrwt beam="1">0</pdfrwt>
<pdfrwt beam="2">0</pdfrwt>
<totfact> 0.26875883E+10</totfact>
</mgrwt>
</event>
<event>
 4    1  0.1750553E+006  0.2215566E+01  0.7546771E-02  0.2848975E+00
         22   -1    0    0    0    0  0.00000000000E+00  0.00000000000E+00  0.92191220602E+01  0.92191220602E+01  0.00000000000E+00 0. -1.
         22   -1    0    0    0    0 -0.00000000000E+00 -0.00000000000E+00 -0.18407647735E+01  0.18407647735E+01  0.00000000000E+00 0. -1.
          4    1    1    2  501    0 -0.75558735945E+00  0.16507327328E+01  0.83512347520E+01  0.86401303634E+01  0.12700000000E+01 0. -1.
         -4    1    1    2    0  501  0.75558735945E+00 -0.16507327328E+01 -0.97287746532E+00  0.24197564703E+01  0.12700000000E+01 0. -1.
<mgrwt>
<rscale>  0 0.22155656E+01</rscale>
<asrwt>0</asrwt>
<pdfrwt beam="1">0</pdfrwt>
<pdfrwt beam="2">0</pdfrwt>
<totfact> 0.86865977E+11</totfact>
</mgrwt>
</event>
<event>
 4    1  0.1750553E+006  0.2008489E+01  0.7546771E-02  0.2975020E+00
         22   -1    0    0    0    0  0.00000000000E+00  0.00000000000E+00  0.15751093950E+02  0.15751093950E+02  0.00000000000E+00 0.  1.
         22   -1    0    0    0    0 -0.00000000000E+00 -0.00000000000E+00 -0.29515751612E+00  0.29515751612E+00  0.00000000000E+00 0. -1.
          4    1    1    2  501    0  0.19379331904E+00 -0.15438823380E+01  0.10646119374E+02  0.10833922939E+02  0.12700000000E+01 0. -1.
         -4    1    1    2    0  501 -0.19379331904E+00  0.15438823380E+01  0.48098170595E+01  0.52123285267E+01  0.12700000000E+01 0.  1.
<mgrwt>
<rscale>  0 0.20084891E+01</rscale>
<asrwt>0</asrwt>
<pdfrwt beam="1">0</pdfrwt>
<pdfrwt beam="2">0</pdfrwt>
<totfact> 0.36203473E+12</totfact>
</mgrwt>
</event>
<event>
 4    1  0.1750553E+006  0.2093474E+01  0.7546771E-02  0.2920367E+00
         22   -1    0    0    0    0  0.00000000000E+00  0.00000000000E+00  0.30871610664E+01  0.30871610664E+01  0.00000000000E+00 0.  1.
         22   -1    0    0    0    0 -0.00000000000E+00 -0.00000000000E+00 -0.15672741318E+01  0.15672741318E+01  0.00000000000E+00 0.  1.
          4    1    1    2  501    0  0.10305575232E+01  0.13067841293E+01  0.14742246683E+01  0.25604632280E+01  0.12700000000E+01 0.  1.
         -4    1    1    2    0  501 -0.10305575232E+01 -0.13067841293E+01  0.45662266340E-01  0.20939719702E+01  0.12700000000E+01 0.  1.
<mgrwt>
<rscale>  0 0.20934740E+01</rscale>
<asrwt>0</asrwt>
<pdfrwt beam="1">0</pdfrwt>
<pdfrwt beam="2">0</pdfrwt>
<totfact> 0.38311962E+12</totfact>
</mgrwt>
</event>
<event>
 4    1  0.1750553E+006  0.2022061E+01  0.7546771E-02  0.2965991E+00
         22   -1    0    0    0    0  0.00000000000E+00  0.00000000000E+00  0.15638534653E+00  0.15638534653E+00  0.00000000000E+00 0.  1.
         22   -1    0    0    0    0 -0.00000000000E+00 -0.00000000000E+00 -0.26166948471E+02  0.26166948471E+02  0.00000000000E+00 0. -1.
          4    1    1    2  501    0  0.79337169670E+00  0.13588204902E+01 -0.12626149817E+02  0.12787039961E+02  0.12700000000E+01 0. -1.
         -4    1    1    2    0  501 -0.79337169670E+00 -0.13588204902E+01 -0.13384413307E+02  0.13536293856E+02  0.12700000000E+01 0.  1.
<mgrwt>
<rscale>  0 0.20220613E+01</rscale>
<asrwt>0</asrwt>
<pdfrwt beam="1">0</pdfrwt>
<pdfrwt beam="2">0</pdfrwt>
<totfact> 0.39048499E+12</totfact>
</mgrwt>
</event>
<event>
 4    1  0.1750553E+006  0.2543671E+01  0.7546771E-02  0.2689584E+00
         22   -1    0    0    0    0  0.00000000000E+00  0.00000000000E+00  0.40611113900E+00  0.40611113900E+00  0.00000000000E+00 0. -1.
         22   -1    0    0    0    0 -0.00000000000E+00 -0.00000000000E+00 -0.27985511755E+02  0.27985511755E+02  0.00000000000E+00 0. -1.
          4    1    1    2  501    0 -0.21860815192E+01 -0.28001923578E+00 -0.44733473296E+01  0.51459789654E+01  0.12700000000E+01 0. -1.
         -4    1    1    2    0  501  0.21860815192E+01  0.28001923578E+00 -0.23106053286E+02  0.23245643929E+02  0.12700000000E+01 0. -1.
<mgrwt>
<rscale>  0 0.25436712E+01</rscale>
<asrwt>0</asrwt>
<pdfrwt beam="1">0</pdfrwt>
<pdfrwt beam="2">0</pdfrwt>
<totfact> 0.12330290E+12</totfact>
</mgrwt>
</event>
<event>
 4    1  0.1750553E+006  0.2268696E+01  0.7546771E-02  0.2820212E+00
         22   -1    0    0    0    0  0.00000000000E+00  0.00000000000E+00  0.59676299440E+01  0.59676299440E+01  0.00000000000E+00 0.  1.
         22   -1    0    0    0    0 -0.00000000000E+00 -0.00000000000E+00 -0.21936865406E+01  0.21936865406E+01  0.00000000000E+00 0. -1.
          4    1    1    2  501    0 -0.14869416013E+01 -0.11502539345E+01  0.50657860809E+01  0.55506006933E+01  0.12700000000E+01 0.  1.
         -4    1    1    2    0  501  0.14869416013E+01  0.11502539345E+01 -0.12918426775E+01  0.26107157913E+01  0.12700000000E+01 0. -1.
<mgrwt>
<rscale>  0 0.22686955E+01</rscale>
<asrwt>0</asrwt>
<pdfrwt beam="1">0</pdfrwt>
<pdfrwt beam="2">0</pdfrwt>
<totfact> 0.11941542E+12</totfact>
</mgrwt>
</event>
<event>
 4    1  0.1750553E+006  0.2483722E+01  0.7546771E-02  0.2715750E+00
         22   -1    0    0    0    0  0.00000000000E+00  0.00000000000E+00  0.47935726740E+01  0.47935726740E+01  0.00000000000E+00 0.  1.
         22   -1    0    0    0    0 -0.00000000000E+00 -0.00000000000E+00 -0.13191330844E+01  0.13191330844E+01  0.00000000000E+00 0. -1.
          4    1    1    2  501    0 -0.20365018398E+01  0.63924634055E+00  0.12595010978E+01  0.27848193196E+01  0.12700000000E+01 0. -1.
         -4    1    1    2    0  501  0.20365018398E+01 -0.63924634055E+00  0.22149384918E+01  0.33278864388E+01  0.12700000000E+01 0.  1.
<mgrwt>
<rscale>  0 0.24837221E+01</rscale>
<asrwt>0</asrwt>
<pdfrwt beam="1">0</pdfrwt>
<pdfrwt beam="2">0</pdfrwt>
<totfact> 0.27845880E+12</totfact>
</mgrwt>
</event>
<event>
 4    1  0.1750553E+006  0.2304940E+01  0.7546771E-02  0.2801317E+00
         22   -1    0    0    0    0  0.00000000000E+00  0.00000000000E+00  0.24130160352E+00  0.24130160352E+00  0.00000000000E+00 0. -1.
         22   -1    0    0    0    0 -0.00000000000E+00 -0.00000000000E+00 -0.35652792000E+02  0.35652792000E+02  0.00000000000E+00 0.  1.
          4    1    1    2  501    0  0.19005470309E+01  0.29626122462E+00 -0.28804789711E+02  0.28896862460E+02  0.12700000000E+01 0.  1.
         -4    1    1    2    0  501 -0.19005470309E+01 -0.29626122462E+00 -0.66067006850E+01  0.69972311432E+01  0.12700000000E+01 0. -1.
<mgrwt>
<rscale>  0 0.23049403E+01</rscale>
<asrwt>0</asrwt>
<pdfrwt beam="1">0</pdfrwt>
<pdfrwt beam="2">0</pdfrwt>
<totfact> 0.16224278E+12</totfact>
</mgrwt>
</event>
<event>
 4    1  0.1750553E+006  0.2175572E+01  0.7546771E-02  0.2871510E+00
         22   -1    0    0    0    0  0.00000000000E+00  0.00000000000E+00  0.20321487328E+02  0.20321487328E+02  0.00000000000E+00 0. -1.
         22   -1    0    0    0    0 -0.00000000000E+00 -0.00000000000E+00 -0.24431817819E+00  0.24431817819E+00  0.00000000000E+00 0.  1.
          4    1    1    2  501    0  0.17582750744E+01 -0.16936238164E+00  0.78167531655E+01  0.81138612821E+01  0.12700000000E+01 0.  1.
         -4    1    1    2    0  501 -0.17582750744E+01  0.16936238164E+00  0.12260415984E+02  0.12451944224E+02  0.12700000000E+01 0. -1.
<mgrwt>
<rscale>  0 0.21755723E+01</rscale>
<asrwt>0</asrwt>
<pdfrwt beam="1">0</pdfrwt>
<pdfrwt beam="2">0</pdfrwt>
<totfact> 0.32616941E+12</totfact>
</mgrwt>
</event>
<event>
 4    1  0.1750553E+006  0.2079364E+01  0.7546771E-02  0.2929140E+00
         22   -1    0    0    0    0  0.00000000000E+00  0.00000000000E+00  0.26081489426E+01  0.26081489426E+01  0.00000000000E+00 0. -1.
         22   -1    0    0    0    0 -0.00000000000E+00 -0.00000000000E+00 -0.28318511691E+01  0.28318511691E+01  0.00000000000E+00 0. -1.
          4    1    1    2  501    0 -0.16463293387E+01 -0.21271483710E-01  0.16395265443E+01  0.26479803732E+01  0.12700000000E+01 0. -1.
         -4    1    1    2    0  501  0.16463293387E+01  0.21271483710E-01 -0.18632287708E+01  0.27920197385E+01  0.12700000000E+01 0. -1.
<mgrwt>
<rscale>  0 0.20793635E+01</rscale>
<asrwt>0</asrwt>
<pdfrwt beam="1">0</pdfrwt>
<pdfrwt beam="2">0</pdfrwt>
<totfact> 0.23497317E+12</totfact>
</mgrwt>
</event>
<event>
 4    1  0.1750553E+006  0.2301461E+01  0.7546771E-02  0.2803106E+00
         22   -1    0    0    0    0  0.00000000000E+00  0.00000000000E+00  0.20311555683E+01  0.20311555683E+01  0.00000000000E+00 0. -1.
         22   -1    0    0    0    0 -0.00000000000E+00 -0.00000000000E+00 -0.28532684073E+01  0.28532684073E+01  0.00000000000E+00 0. -1.
          4    1    1    2  501    0 -0.17933942309E+01 -0.68378256306E+00  0.30535867857E+00  0.23216298981E+01  0.12700000000E+01 0. -1.
         -4    1    1    2    0  501  0.17933942309E+01  0.68378256306E+00 -0.11274715176E+01  0.25627940776E+01  0.12700000000E+01 0. -1.
<mgrwt>
<rscale>  0 0.23014607E+01</rscale>
<asrwt>0</asrwt>
<pdfrwt beam="1">0</pdfrwt>
<pdfrwt beam="2">0</pdfrwt>
<totfact> 0.31138475E+12</totfact>
</mgrwt>
</event>
<event>
 4    1  0.1750553E+006  0.2041477E+01  0.7546771E-02  0.2953278E+00
         22   -1    0    0    0    0  0.00000000000E+00  0.00000000000E+00  0.30885123974E+00  0.30885123974E+00  0.00000000000E+00 0. -1.
         22   -1    0    0    0    0 -0.00000000000E+00 -0.00000000000E+00 -0.16120075826E+02  0.16120075826E+02  0.00000000000E+00 0. -1.
          4    1    1    2  501    0  0.66963377549E+00  0.14513163122E+01 -0.11221135155E+02  0.11405327816E+02  0.12700000000E+01 0. -1.
         -4    1    1    2    0  501 -0.66963377549E+00 -0.14513163122E+01 -0.45900894311E+01  0.50235992492E+01  0.12700000000E+01 0. -1.
<mgrwt>
<rscale>  0 0.20414770E+01</rscale>
<asrwt>0</asrwt>
<pdfrwt beam="1">0</pdfrwt>
<pdfrwt beam="2">0</pdfrwt>
<totfact> 0.33439682E+12</totfact>
</mgrwt>
</event>
<event>
 4    1  0.1750553E+006  0.2069687E+01  0.7546771E-02  0.2935223E+00
         22   -1    0    0    0    0  0.00000000000E+00  0.00000000000E+00  0.16717804605E+02  0.16717804605E+02  0.00000000000E+00 0.  1.
         22   -1    0    0    0    0 -0.00000000000E+00 -0.00000000000E+00 -0.90088315480E+00  0.90088315480E+00  0.00000000000E+00 0. -1.
          4    1    1    2  501    0 -0.11686806301E+01  0.11423174111E+01  0.15360452693E+02  0.15499261609E+02  0.12700000000E+01 0.  1.
         -4    1    1    2    0  501  0.11686806301E+01 -0.11423174111E+01  0.45646875704E+00  0.21194261509E+01  0.12700000000E+01 0. -1.
<mgrwt>
<rscale>  0 0.20696868E+01</rscale>
<asrwt>0</asrwt>
<pdfrwt beam="1">0</pdfrwt>
<pdfrwt beam="2">0</pdfrwt>
<totfact> 0.95324866E+11</totfact>
</mgrwt>
</event>
<event>
 4    1  0.1750553E+006  0.4046665E+01  0.7546771E-02  0.2268462E+00
         22   -1    0    0    0    0  0.00000000000E+00  0.00000000000E+00  0.83989686588E+01  0.83989686588E+01  0.00000000000E+00 0.  1.
         22   -1    0    0    0    0 -0.00000000000E+00 -0.00000000000E+00 -0.21093564122E+01  0.21093564122E+01  0.00000000000E+00 0. -1.
          4    1    1    2  501    0 -0.24083276910E+01 -0.29937531087E+01  0.45903015534E+01  0.61193437797E+01  0.12700000000E+01 0.  1.
         -4    1    1    2    0  501  0.24083276910E+01  0.29937531087E+01  0.16993106933E+01  0.43889812913E+01  0.12700000000E+01 0. -1.
<mgrwt>
<rscale>  0 0.40466653E+01</rscale>
<asrwt>0</asrwt>
<pdfrwt beam="1">0</pdfrwt>
<pdfrwt beam="2">0</pdfrwt>
<totfact> 0.83025066E+11</totfact>
</mgrwt>
</event>
<event>
 4    1  0.1750553E+006  0.2447183E+01  0.7546771E-02  0.2732284E+00
         22   -1    0    0    0    0  0.00000000000E+00  0.00000000000E+00  0.35248655029E+02  0.35248655029E+02  0.00000000000E+00 0. -1.
         22   -1    0    0    0    0 -0.00000000000E+00 -0.00000000000E+00 -0.17022790474E+00  0.17022790474E+00  0.00000000000E+00 0.  1.
          4    1    1    2  501    0 -0.19676011725E+01  0.71017521049E+00  0.16760504831E+02  0.16938217893E+02  0.12700000000E+01 0. -1.
         -4    1    1    2    0  501  0.19676011725E+01 -0.71017521049E+00  0.18317922294E+02  0.18480665041E+02  0.12700000000E+01 0.  1.
<mgrwt>
<rscale>  0 0.24471827E+01</rscale>
<asrwt>0</asrwt>
<pdfrwt beam="1">0</pdfrwt>
<pdfrwt beam="2">0</pdfrwt>
<totfact> 0.24300663E+12</totfact>
</mgrwt>
</event>
<event>
 4    1  0.1750553E+006  0.2021844E+01  0.7546771E-02  0.2966135E+00
         22   -1    0    0    0    0  0.00000000000E+00  0.00000000000E+00  0.20030161457E+01  0.20030161457E+01  0.00000000000E+00 0.  1.
         22   -1    0    0    0    0 -0.00000000000E+00 -0.00000000000E+00 -0.29676617911E+01  0.29676617911E+01  0.00000000000E+00 0. -1.
          4    1    1    2  501    0  0.15457879823E+01  0.29239056736E+00  0.90658852437E+00  0.22157968054E+01  0.12700000000E+01 0.  1.
         -4    1    1    2    0  501 -0.15457879823E+01 -0.29239056736E+00 -0.18712341697E+01  0.27548811314E+01  0.12700000000E+01 0. -1.
<mgrwt>
<rscale>  0 0.20218439E+01</rscale>
<asrwt>0</asrwt>
<pdfrwt beam="1">0</pdfrwt>
<pdfrwt beam="2">0</pdfrwt>
<totfact> 0.30224176E+12</totfact>
</mgrwt>
</event>
<event>
 4    1  0.1750553E+006  0.2015617E+01  0.7546771E-02  0.2970264E+00
         22   -1    0    0    0    0  0.00000000000E+00  0.00000000000E+00  0.69939244070E+01  0.69939244070E+01  0.00000000000E+00 0. -1.
         22   -1    0    0    0    0 -0.00000000000E+00 -0.00000000000E+00 -0.58207874947E+00  0.58207874947E+00  0.00000000000E+00 0.  1.
          4    1    1    2  501    0 -0.31986044809E+00  0.15321552908E+01  0.33770064897E+01  0.39327958723E+01  0.12700000000E+01 0.  1.
         -4    1    1    2    0  501  0.31986044809E+00 -0.15321552908E+01  0.30348391678E+01  0.36432072842E+01  0.12700000000E+01 0. -1.
<mgrwt>
<rscale>  0 0.20156167E+01</rscale>
<asrwt>0</asrwt>
<pdfrwt beam="1">0</pdfrwt>
<pdfrwt beam="2">0</pdfrwt>
<totfact> 0.45132963E+12</totfact>
</mgrwt>
</event>
<event>
 4    1  0.1750553E+006  0.2645986E+01  0.7546771E-02  0.2647470E+00
         22   -1    0    0    0    0  0.00000000000E+00  0.00000000000E+00  0.59612309193E+00  0.59612309193E+00  0.00000000000E+00 0.  1.
         22   -1    0    0    0    0 -0.00000000000E+00 -0.00000000000E+00 -0.13089443522E+02  0.13089443522E+02  0.00000000000E+00 0. -1.
          4    1    1    2  501    0 -0.23205315867E+01 -0.58933820652E-01 -0.40533270126E+01  0.48405268216E+01  0.12700000000E+01 0.  1.
         -4    1    1    2    0  501  0.23205315867E+01  0.58933820652E-01 -0.84399934177E+01  0.88450397925E+01  0.12700000000E+01 0.  1.
<mgrwt>
<rscale>  0 0.26459856E+01</rscale>
<asrwt>0</asrwt>
<pdfrwt beam="1">0</pdfrwt>
<pdfrwt beam="2">0</pdfrwt>
<totfact> 0.20590029E+12</totfact>
</mgrwt>
</event>
<event>
 4    1  0.1750553E+006  0.2622602E+01  0.7546771E-02  0.2656828E+00
         22   -1    0    0    0    0  0.00000000000E+00  0.00000000000E+00  0.10561562821E+02  0.10561562821E+02  0.00000000000E+00 0. -1.
         22   -1    0    0    0    0 -0.00000000000E+00 -0.00000000000E+00 -0.93854969152E+00  0.93854969152E+00  0.00000000000E+00 0.  1.
          4    1    1    2  501    0  0.22494662904E+01 -0.45281762314E+00  0.79929454825E+01  0.84122065998E+01  0.12700000000E+01 0. -1.
         -4    1    1    2    0  501 -0.22494662904E+01  0.45281762314E+00  0.16300676468E+01  0.30879059125E+01  0.12700000000E+01 0.  1.
<mgrwt>
<rscale>  0 0.26226022E+01</rscale>
<asrwt>0</asrwt>
<pdfrwt beam="1">0</pdfrwt>
<pdfrwt beam="2">0</pdfrwt>
<totfact> 0.15966030E+12</totfact>
</mgrwt>
</event>
<event>
 4    1  0.1750553E+006  0.2199003E+01  0.7546771E-02  0.2858212E+00
         22   -1    0    0    0    0  0.00000000000E+00  0.00000000000E+00  0.64180622455E+01  0.64180622455E+01  0.00000000000E+00 0. -1.
         22   -1    0    0    0    0 -0.00000000000E+00 -0.00000000000E+00 -0.79604656851E+00  0.79604656851E+00  0.00000000000E+00 0. -1.
          4    1    1    2  501    0  0.16565999630E+01 -0.69165725367E+00  0.36455167242E+01  0.42573942008E+01  0.12700000000E+01 0. -1.
         -4    1    1    2    0  501 -0.16565999630E+01  0.69165725367E+00  0.19764989528E+01  0.29567146133E+01  0.12700000000E+01 0. -1.
<mgrwt>
<rscale>  0 0.21990028E+01</rscale>
<asrwt>0</asrwt>
<pdfrwt beam="1">0</pdfrwt>
<pdfrwt beam="2">0</pdfrwt>
<totfact> 0.35061439E+12</totfact>
</mgrwt>
</event>
<event>
 4    1  0.1750553E+006  0.7865092E+01  0.7546771E-02  0.1884166E+00
         22   -1    0    0    0    0  0.00000000000E+00  0.00000000000E+00  0.37213062295E+01  0.37213062295E+01  0.00000000000E+00 0. -1.
         22   -1    0    0    0    0 -0.00000000000E+00 -0.00000000000E+00 -0.20285311138E+02  0.20285311138E+02  0.00000000000E+00 0.  1.
          4    1    1    2  501    0 -0.76485568681E+01 -0.13214974388E+01 -0.13382133284E+02  0.15522279757E+02  0.12700000000E+01 0.  1.
         -4    1    1    2    0  501  0.76485568681E+01  0.13214974388E+01 -0.31818716247E+01  0.84843376100E+01  0.12700000000E+01 0. -1.
<mgrwt>
<rscale>  0 0.78650923E+01</rscale>
<asrwt>0</asrwt>
<pdfrwt beam="1">0</pdfrwt>
<pdfrwt beam="2">0</pdfrwt>
<totfact> 0.14549104E+11</totfact>
</mgrwt>
</event>
<event>
 4    1  0.1750553E+006  0.2023627E+01  0.7546771E-02  0.2964957E+00
         22   -1    0    0    0    0  0.00000000000E+00  0.00000000000E+00  0.11143136959E+01  0.11143136959E+01  0.00000000000E+00 0.  1.
         22   -1    0    0    0    0 -0.00000000000E+00 -0.00000000000E+00 -0.10160989283E+02  0.10160989283E+02  0.00000000000E+00 0. -1.
          4    1    1    2  501    0  0.62327059634E+00  0.14469629461E+01 -0.19119935376E-01  0.20237177608E+01  0.12700000000E+01 0.  1.
         -4    1    1    2    0  501 -0.62327059634E+00 -0.14469629461E+01 -0.90275556521E+01  0.92515852185E+01  0.12700000000E+01 0. -1.
<mgrwt>
<rscale>  0 0.20236274E+01</rscale>
<asrwt>0</asrwt>
<pdfrwt beam="1">0</pdfrwt>
<pdfrwt beam="2">0</pdfrwt>
<totfact> 0.13751348E+12</totfact>
</mgrwt>
</event>
<event>
 4    1  0.1750553E+006  0.3205910E+01  0.7546771E-02  0.2460860E+00
         22   -1    0    0    0    0  0.00000000000E+00  0.00000000000E+00  0.33194020262E+01  0.33194020262E+01  0.00000000000E+00 0.  1.
         22   -1    0    0    0    0 -0.00000000000E+00 -0.00000000000E+00 -0.37763453015E+01  0.37763453015E+01  0.00000000000E+00 0. -1.
          4    1    1    2  501    0  0.11708237161E+01 -0.27007651239E+01 -0.17340439196E+01  0.36448276700E+01  0.12700000000E+01 0. -1.
         -4    1    1    2    0  501 -0.11708237161E+01  0.27007651239E+01  0.12771006443E+01  0.34509196578E+01  0.12700000000E+01 0.  1.
<mgrwt>
<rscale>  0 0.32059102E+01</rscale>
<asrwt>0</asrwt>
<pdfrwt beam="1">0</pdfrwt>
<pdfrwt beam="2">0</pdfrwt>
<totfact> 0.12659969E+12</totfact>
</mgrwt>
</event>
<event>
 4    1  0.1750553E+006  0.2187609E+01  0.7546771E-02  0.2864644E+00
         22   -1    0    0    0    0  0.00000000000E+00  0.00000000000E+00  0.48088512822E+02  0.48088512822E+02  0.00000000000E+00 0. -1.
         22   -1    0    0    0    0 -0.00000000000E+00 -0.00000000000E+00 -0.20323089262E+00  0.20323089262E+00  0.00000000000E+00 0.  1.
          4    1    1    2  501    0 -0.17776783403E+01  0.11222684310E+00  0.41191724852E+02  0.41249773714E+02  0.12700000000E+01 0. -1.
         -4    1    1    2    0  501  0.17776783403E+01 -0.11222684310E+00  0.66935570773E+01  0.70419700009E+01  0.12700000000E+01 0.  1.
<mgrwt>
<rscale>  0 0.21876095E+01</rscale>
<asrwt>0</asrwt>
<pdfrwt beam="1">0</pdfrwt>
<pdfrwt beam="2">0</pdfrwt>
<totfact> 0.13315807E+12</totfact>
</mgrwt>
</event>
<event>
 4    1  0.1750553E+006  0.2259911E+01  0.7546771E-02  0.2824879E+00
         22   -1    0    0    0    0  0.00000000000E+00  0.00000000000E+00  0.97212411296E+00  0.97212411296E+00  0.00000000000E+00 0. -1.
         22   -1    0    0    0    0 -0.00000000000E+00 -0.00000000000E+00 -0.12148560991E+02  0.12148560991E+02  0.00000000000E+00 0. -1.
          4    1    1    2  501    0  0.22974233448E+00  0.18551324755E+01 -0.64592544407E+00  0.23504079904E+01  0.12700000000E+01 0. -1.
         -4    1    1    2    0  501 -0.22974233448E+00 -0.18551324755E+01 -0.10530511434E+02  0.10770277114E+02  0.12700000000E+01 0. -1.
<mgrwt>
<rscale>  0 0.22599111E+01</rscale>
<asrwt>0</asrwt>
<pdfrwt beam="1">0</pdfrwt>
<pdfrwt beam="2">0</pdfrwt>
<totfact> 0.12935915E+12</totfact>
</mgrwt>
</event>
<event>
 4    1  0.1750553E+006  0.2148106E+01  0.7546771E-02  0.2887454E+00
         22   -1    0    0    0    0  0.00000000000E+00  0.00000000000E+00  0.52635919976E+00  0.52635919976E+00  0.00000000000E+00 0.  1.
         22   -1    0    0    0    0 -0.00000000000E+00 -0.00000000000E+00 -0.93003849738E+01  0.93003849738E+01  0.00000000000E+00 0. -1.
          4    1    1    2  501    0 -0.38636606898E+00  0.16888398212E+01 -0.32098697554E+01  0.38623338187E+01  0.12700000000E+01 0.  1.
         -4    1    1    2    0  501  0.38636606898E+00 -0.16888398212E+01 -0.55641560187E+01  0.59644103549E+01  0.12700000000E+01 0. -1.
<mgrwt>
<rscale>  0 0.21481058E+01</rscale>
<asrwt>0</asrwt>
<pdfrwt beam="1">0</pdfrwt>
<pdfrwt beam="2">0</pdfrwt>
<totfact> 0.35906538E+12</totfact>
</mgrwt>
</event>
<event>
 4    1  0.1750553E+006  0.2101883E+01  0.7546771E-02  0.2915193E+00
         22   -1    0    0    0    0  0.00000000000E+00  0.00000000000E+00  0.64563196855E-01  0.64563196855E-01  0.00000000000E+00 0. -1.
         22   -1    0    0    0    0 -0.00000000000E+00 -0.00000000000E+00 -0.76203837588E+02  0.76203837588E+02  0.00000000000E+00 0.  1.
          4    1    1    2  501    0  0.16556024588E+01  0.25296704894E+00 -0.50251336098E+02  0.50295275041E+02  0.12700000000E+01 0.  1.
         -4    1    1    2    0  501 -0.16556024588E+01 -0.25296704894E+00 -0.25887938293E+02  0.25973125744E+02  0.12700000000E+01 0. -1.
<mgrwt>
<rscale>  0 0.21018829E+01</rscale>
<asrwt>0</asrwt>
<pdfrwt beam="1">0</pdfrwt>
<pdfrwt beam="2">0</pdfrwt>
<totfact> 0.25618972E+12</totfact>
</mgrwt>
</event>
<event>
 4    1  0.1750553E+006  0.3117957E+01  0.7546771E-02  0.2486170E+00
         22   -1    0    0    0    0  0.00000000000E+00  0.00000000000E+00  0.31097700118E+01  0.31097700118E+01  0.00000000000E+00 0. -1.
         22   -1    0    0    0    0 -0.00000000000E+00 -0.00000000000E+00 -0.32585213697E+01  0.32585213697E+01  0.00000000000E+00 0.  1.
          4    1    1    2  501    0 -0.98539531588E+00  0.26716570195E+01  0.56735757595E+00  0.31691560040E+01  0.12700000000E+01 0. -1.
         -4    1    1    2    0  501  0.98539531588E+00 -0.26716570195E+01 -0.71610893388E+00  0.31991353775E+01  0.12700000000E+01 0.  1.
<mgrwt>
<rscale>  0 0.31179569E+01</rscale>
<asrwt>0</asrwt>
<pdfrwt beam="1">0</pdfrwt>
<pdfrwt beam="2">0</pdfrwt>
<totfact> 0.16244261E+12</totfact>
</mgrwt>
</event>
<event>
 4    1  0.1750553E+006  0.3867109E+01  0.7546771E-02  0.2303440E+00
         22   -1    0    0    0    0  0.00000000000E+00  0.00000000000E+00  0.50396775525E+02  0.50396775525E+02  0.00000000000E+00 0.  1.
         22   -1    0    0    0    0 -0.00000000000E+00 -0.00000000000E+00 -0.35645183510E+00  0.35645183510E+00  0.00000000000E+00 0. -1.
          4    1    1    2  501    0  0.32216512348E+01 -0.17212187700E+01  0.35406883419E+02  0.35617438484E+02  0.12700000000E+01 0.  1.
         -4    1    1    2    0  501 -0.32216512348E+01  0.17212187700E+01  0.14633440271E+02  0.15135788876E+02  0.12700000000E+01 0. -1.
<mgrwt>
<rscale>  0 0.38671088E+01</rscale>
<asrwt>0</asrwt>
<pdfrwt beam="1">0</pdfrwt>
<pdfrwt beam="2">0</pdfrwt>
<totfact> 0.66736292E+11</totfact>
</mgrwt>
</event>
<event>
 4    1  0.1750553E+006  0.2435200E+01  0.7546771E-02  0.2737807E+00
         22   -1    0    0    0    0  0.00000000000E+00  0.00000000000E+00  0.95745942392E+00  0.95745942392E+00  0.00000000000E+00 0. -1.
         22   -1    0    0    0    0 -0.00000000000E+00 -0.00000000000E+00 -0.10483402598E+02  0.10483402598E+02  0.00000000000E+00 0.  1.
          4    1    1    2  501    0 -0.16457340555E+01  0.12684069413E+01 -0.11037201445E+01  0.26736482393E+01  0.12700000000E+01 0. -1.
         -4    1    1    2    0  501  0.16457340555E+01 -0.12684069413E+01 -0.84222230300E+01  0.87672137830E+01  0.12700000000E+01 0.  1.
<mgrwt>
<rscale>  0 0.24351995E+01</rscale>
<asrwt>0</asrwt>
<pdfrwt beam="1">0</pdfrwt>
<pdfrwt beam="2">0</pdfrwt>
<totfact> 0.15747828E+12</totfact>
</mgrwt>
</event>
<event>
 4    1  0.1750553E+006  0.2281744E+01  0.7546771E-02  0.2813344E+00
         22   -1    0    0    0    0  0.00000000000E+00  0.00000000000E+00  0.44121132382E+00  0.44121132382E+00  0.00000000000E+00 0.  1.
         22   -1    0    0    0    0 -0.00000000000E+00 -0.00000000000E+00 -0.12355214614E+02  0.12355214614E+02  0.00000000000E+00 0. -1.
          4    1    1    2  501    0 -0.11940693159E+01 -0.14722961640E+01 -0.46008528744E+01  0.51355822161E+01  0.12700000000E+01 0.  1.
         -4    1    1    2    0  501  0.11940693159E+01  0.14722961640E+01 -0.73131504157E+01  0.76608437217E+01  0.12700000000E+01 0. -1.
<mgrwt>
<rscale>  0 0.22817444E+01</rscale>
<asrwt>0</asrwt>
<pdfrwt beam="1">0</pdfrwt>
<pdfrwt beam="2">0</pdfrwt>
<totfact> 0.31039855E+12</totfact>
</mgrwt>
</event>
<event>
 4    1  0.1750553E+006  0.2778539E+01  0.7546771E-02  0.2597163E+00
         22   -1    0    0    0    0  0.00000000000E+00  0.00000000000E+00  0.37517519116E+01  0.37517519116E+01  0.00000000000E+00 0. -1.
         22   -1    0    0    0    0 -0.00000000000E+00 -0.00000000000E+00 -0.40594768203E+01  0.40594768203E+01  0.00000000000E+00 0.  1.
          4    1    1    2  501    0  0.81135469506E+00 -0.23343270046E+01  0.25886809298E+01  0.37975713241E+01  0.12700000000E+01 0. -1.
         -4    1    1    2    0  501 -0.81135469506E+00  0.23343270046E+01 -0.28964058385E+01  0.40136574077E+01  0.12700000000E+01 0.  1.
<mgrwt>
<rscale>  0 0.27785390E+01</rscale>
<asrwt>0</asrwt>
<pdfrwt beam="1">0</pdfrwt>
<pdfrwt beam="2">0</pdfrwt>
<totfact> 0.10072391E+12</totfact>
</mgrwt>
</event>
<event>
 4    1  0.1750553E+006  0.2296218E+01  0.7546771E-02  0.2805812E+00
         22   -1    0    0    0    0  0.00000000000E+00  0.00000000000E+00  0.73961040100E+00  0.73961040100E+00  0.00000000000E+00 0. -1.
         22   -1    0    0    0    0 -0.00000000000E+00 -0.00000000000E+00 -0.22808675165E+02  0.22808675165E+02  0.00000000000E+00 0. -1.
          4    1    1    2  501    0 -0.12485900276E+01  0.14493923888E+01 -0.12723019023E+01  0.26251414217E+01  0.12700000000E+01 0. -1.
         -4    1    1    2    0  501  0.12485900276E+01 -0.14493923888E+01 -0.20796762861E+02  0.20923144144E+02  0.12700000000E+01 0. -1.
<mgrwt>
<rscale>  0 0.22962176E+01</rscale>
<asrwt>0</asrwt>
<pdfrwt beam="1">0</pdfrwt>
<pdfrwt beam="2">0</pdfrwt>
<totfact> 0.81031230E+11</totfact>
</mgrwt>
</event>
<event>
 4    1  0.1750553E+006  0.2466522E+01  0.7546771E-02  0.2723476E+00
         22   -1    0    0    0    0  0.00000000000E+00  0.00000000000E+00  0.74920365394E+00  0.74920365394E+00  0.00000000000E+00 0.  1.
         22   -1    0    0    0    0 -0.00000000000E+00 -0.00000000000E+00 -0.82098851762E+01  0.82098851762E+01  0.00000000000E+00 0. -1.
          4    1    1    2  501    0 -0.96653041828E+00 -0.18805985449E+01 -0.41983657957E+01  0.48692922782E+01  0.12700000000E+01 0. -1.
         -4    1    1    2    0  501  0.96653041828E+00  0.18805985449E+01 -0.32623157266E+01  0.40897965520E+01  0.12700000000E+01 0.  1.
<mgrwt>
<rscale>  0 0.24665222E+01</rscale>
<asrwt>0</asrwt>
<pdfrwt beam="1">0</pdfrwt>
<pdfrwt beam="2">0</pdfrwt>
<totfact> 0.27972313E+12</totfact>
</mgrwt>
</event>
<event>
 4    1  0.1750553E+006  0.2122420E+01  0.7546771E-02  0.2902724E+00
         22   -1    0    0    0    0  0.00000000000E+00  0.00000000000E+00  0.17062871612E+01  0.17062871612E+01  0.00000000000E+00 0.  1.
         22   -1    0    0    0    0 -0.00000000000E+00 -0.00000000000E+00 -0.52887627883E+01  0.52887627883E+01  0.00000000000E+00 0. -1.
          4    1    1    2  501    0 -0.14085050961E+01  0.95282689233E+00  0.68391527927E+00  0.22298891905E+01  0.12700000000E+01 0.  1.
         -4    1    1    2    0  501  0.14085050961E+01 -0.95282689233E+00 -0.42663909064E+01  0.47651607589E+01  0.12700000000E+01 0. -1.
<mgrwt>
<rscale>  0 0.21224198E+01</rscale>
<asrwt>0</asrwt>
<pdfrwt beam="1">0</pdfrwt>
<pdfrwt beam="2">0</pdfrwt>
<totfact> 0.18432083E+12</totfact>
</mgrwt>
</event>
<event>
 4    1  0.1750553E+006  0.2850497E+01  0.7546771E-02  0.2571645E+00
         22   -1    0    0    0    0  0.00000000000E+00  0.00000000000E+00  0.98607619492E+01  0.98607619492E+01  0.00000000000E+00 0.  1.
         22   -1    0    0    0    0 -0.00000000000E+00 -0.00000000000E+00 -0.16657113230E+01  0.16657113230E+01  0.00000000000E+00 0.  1.
          4    1    1    2  501    0 -0.24348482969E+01 -0.76416538082E+00  0.81943408687E+01  0.86759758662E+01  0.12700000000E+01 0.  1.
         -4    1    1    2    0  501  0.24348482969E+01  0.76416538082E+00  0.70975748427E-03  0.28504974060E+01  0.12700000000E+01 0.  1.
<mgrwt>
<rscale>  0 0.28504973E+01</rscale>
<asrwt>0</asrwt>
<pdfrwt beam="1">0</pdfrwt>
<pdfrwt beam="2">0</pdfrwt>
<totfact> 0.89876093E+11</totfact>
</mgrwt>
</event>
<event>
 4    1  0.1750553E+006  0.2222484E+01  0.7546771E-02  0.2845155E+00
         22   -1    0    0    0    0  0.00000000000E+00  0.00000000000E+00  0.18465922781E+01  0.18465922781E+01  0.00000000000E+00 0.  1.
         22   -1    0    0    0    0 -0.00000000000E+00 -0.00000000000E+00 -0.55256663102E+01  0.55256663102E+01  0.00000000000E+00 0.  1.
          4    1    1    2  501    0 -0.79209028298E+00  0.16429027246E+01  0.80810701412E+00  0.23648410782E+01  0.12700000000E+01 0.  1.
         -4    1    1    2    0  501  0.79209028298E+00 -0.16429027246E+01 -0.44871810463E+01  0.50074175101E+01  0.12700000000E+01 0.  1.
<mgrwt>
<rscale>  0 0.22224843E+01</rscale>
<asrwt>0</asrwt>
<pdfrwt beam="1">0</pdfrwt>
<pdfrwt beam="2">0</pdfrwt>
<totfact> 0.15972686E+12</totfact>
</mgrwt>
</event>
<event>
 4    1  0.1750553E+006  0.2228254E+01  0.7546771E-02  0.2841987E+00
         22   -1    0    0    0    0  0.00000000000E+00  0.00000000000E+00  0.58774842747E-01  0.58774842747E-01  0.00000000000E+00 0. -1.
         22   -1    0    0    0    0 -0.00000000000E+00 -0.00000000000E+00 -0.89035449474E+02  0.89035449474E+02  0.00000000000E+00 0. -1.
          4    1    1    2  501    0  0.12329846485E+01 -0.13535015735E+01 -0.34408570384E+02  0.34480644332E+02  0.12700000000E+01 0. -1.
         -4    1    1    2    0  501 -0.12329846485E+01  0.13535015735E+01 -0.54568104247E+02  0.54613579985E+02  0.12700000000E+01 0. -1.
<mgrwt>
<rscale>  0 0.22282544E+01</rscale>
<asrwt>0</asrwt>
<pdfrwt beam="1">0</pdfrwt>
<pdfrwt beam="2">0</pdfrwt>
<totfact> 0.22927125E+12</totfact>
</mgrwt>
</event>
<event>
 4    1  0.1750553E+006  0.2085249E+01  0.7546771E-02  0.2925467E+00
         22   -1    0    0    0    0  0.00000000000E+00  0.00000000000E+00  0.13085334665E+02  0.13085334665E+02  0.00000000000E+00 0.  1.
         22   -1    0    0    0    0 -0.00000000000E+00 -0.00000000000E+00 -0.66061902733E+00  0.66061902733E+00  0.00000000000E+00 0. -1.
          4    1    1    2  501    0  0.37061697560E+00  0.16118327459E+01  0.11057618120E+02  0.11252518839E+02  0.12700000000E+01 0.  1.
         -4    1    1    2    0  501 -0.37061697560E+00 -0.16118327459E+01  0.13670975179E+01  0.24934348531E+01  0.12700000000E+01 0. -1.
<mgrwt>
<rscale>  0 0.20852486E+01</rscale>
<asrwt>0</asrwt>
<pdfrwt beam="1">0</pdfrwt>
<pdfrwt beam="2">0</pdfrwt>
<totfact> 0.18332954E+12</totfact>
</mgrwt>
</event>
<event>
 4    1  0.1750553E+006  0.2663110E+01  0.7546771E-02  0.2640713E+00
         22   -1    0    0    0    0  0.00000000000E+00  0.00000000000E+00  0.25328652122E+01  0.25328652122E+01  0.00000000000E+00 0. -1.
         22   -1    0    0    0    0 -0.00000000000E+00 -0.00000000000E+00 -0.40891879821E+01  0.40891879821E+01  0.00000000000E+00 0.  1.
          4    1    1    2  501    0  0.22213124620E+01 -0.73825957354E+00  0.10808984464E+01  0.28741081579E+01  0.12700000000E+01 0. -1.
         -4    1    1    2    0  501 -0.22213124620E+01  0.73825957354E+00 -0.26372212164E+01  0.37479450364E+01  0.12700000000E+01 0.  1.
<mgrwt>
<rscale>  0 0.26631103E+01</rscale>
<asrwt>0</asrwt>
<pdfrwt beam="1">0</pdfrwt>
<pdfrwt beam="2">0</pdfrwt>
<totfact> 0.15807503E+12</totfact>
</mgrwt>
</event>
<event>
 4    1  0.1750553E+006  0.4352116E+01  0.7546771E-02  0.2214648E+00
         22   -1    0    0    0    0  0.00000000000E+00  0.00000000000E+00  0.15073979848E+01  0.15073979848E+01  0.00000000000E+00 0.  1.
         22   -1    0    0    0    0 -0.00000000000E+00 -0.00000000000E+00 -0.17353291277E+02  0.17353291277E+02  0.00000000000E+00 0. -1.
          4    1    1    2  501    0 -0.57325098855E+00  0.41230322680E+01 -0.29694349301E+01  0.52686293837E+01  0.12700000000E+01 0.  1.
         -4    1    1    2    0  501  0.57325098855E+00 -0.41230322680E+01 -0.12876458362E+02  0.13592059878E+02  0.12700000000E+01 0. -1.
<mgrwt>
<rscale>  0 0.43521158E+01</rscale>
<asrwt>0</asrwt>
<pdfrwt beam="1">0</pdfrwt>
<pdfrwt beam="2">0</pdfrwt>
<totfact> 0.50488022E+11</totfact>
</mgrwt>
</event>
<event>
 4    1  0.1750553E+006  0.2422339E+01  0.7546771E-02  0.2743791E+00
         22   -1    0    0    0    0  0.00000000000E+00  0.00000000000E+00  0.45353673108E+00  0.45353673108E+00  0.00000000000E+00 0.  1.
         22   -1    0    0    0    0 -0.00000000000E+00 -0.00000000000E+00 -0.36151949985E+02  0.36151949985E+02  0.00000000000E+00 0.  1.
          4    1    1    2  501    0  0.14477016621E+01 -0.14693480586E+01 -0.31826683288E+01  0.39996376725E+01  0.12700000000E+01 0.  1.
         -4    1    1    2    0  501 -0.14477016621E+01  0.14693480586E+01 -0.32515744925E+02  0.32605849043E+02  0.12700000000E+01 0.  1.
<mgrwt>
<rscale>  0 0.24223385E+01</rscale>
<asrwt>0</asrwt>
<pdfrwt beam="1">0</pdfrwt>
<pdfrwt beam="2">0</pdfrwt>
<totfact> 0.78469192E+11</totfact>
</mgrwt>
</event>
<event>
 4    1  0.1750553E+006  0.2492726E+01  0.7546771E-02  0.2711746E+00
         22   -1    0    0    0    0  0.00000000000E+00  0.00000000000E+00  0.43781516290E+01  0.43781516290E+01  0.00000000000E+00 0. -1.
         22   -1    0    0    0    0 -0.00000000000E+00 -0.00000000000E+00 -0.14682710170E+01  0.14682710170E+01  0.00000000000E+00 0.  1.
          4    1    1    2  501    0 -0.20546373919E+01 -0.61582973878E+00  0.19890851029E+01  0.31890657921E+01  0.12700000000E+01 0.  1.
         -4    1    1    2    0  501  0.20546373919E+01  0.61582973878E+00  0.92079550911E+00  0.26573568539E+01  0.12700000000E+01 0. -1.
<mgrwt>
<rscale>  0 0.24927256E+01</rscale>
<asrwt>0</asrwt>
<pdfrwt beam="1">0</pdfrwt>
<pdfrwt beam="2">0</pdfrwt>
<totfact> 0.27403912E+12</totfact>
</mgrwt>
</event>
<event>
 4    1  0.1750553E+006  0.2196098E+01  0.7546771E-02  0.2859846E+00
         22   -1    0    0    0    0  0.00000000000E+00  0.00000000000E+00  0.76134228496E+02  0.76134228496E+02  0.00000000000E+00 0.  1.
         22   -1    0    0    0    0 -0.00000000000E+00 -0.00000000000E+00 -0.66801357065E-01  0.66801357065E-01  0.00000000000E+00 0. -1.
          4    1    1    2  501    0  0.45320565775E+00 -0.17333635668E+01  0.46698280749E+02  0.46749890584E+02  0.12700000000E+01 0. -1.
         -4    1    1    2    0  501 -0.45320565775E+00  0.17333635668E+01  0.29369146390E+02  0.29451139270E+02  0.12700000000E+01 0. -1.
<mgrwt>
<rscale>  0 0.21960976E+01</rscale>
<asrwt>0</asrwt>
<pdfrwt beam="1">0</pdfrwt>
<pdfrwt beam="2">0</pdfrwt>
<totfact> 0.24706276E+12</totfact>
</mgrwt>
</event>
<event>
 4    1  0.1750553E+006  0.2480814E+01  0.7546771E-02  0.2717050E+00
         22   -1    0    0    0    0  0.00000000000E+00  0.00000000000E+00  0.40514506356E+00  0.40514506356E+00  0.00000000000E+00 0.  1.
         22   -1    0    0    0    0 -0.00000000000E+00 -0.00000000000E+00 -0.22541486696E+02  0.22541486696E+02  0.00000000000E+00 0. -1.
          4    1    1    2  501    0 -0.77575876134E+00  0.19848765262E+01 -0.45163105067E+01  0.51528144807E+01  0.12700000000E+01 0.  1.
         -4    1    1    2    0  501  0.77575876134E+00 -0.19848765262E+01 -0.17620031126E+02  0.17793817279E+02  0.12700000000E+01 0. -1.
<mgrwt>
<rscale>  0 0.24808137E+01</rscale>
<asrwt>0</asrwt>
<pdfrwt beam="1">0</pdfrwt>
<pdfrwt beam="2">0</pdfrwt>
<totfact> 0.16243428E+12</totfact>
</mgrwt>
</event>
<event>
 4    1  0.1750553E+006  0.2569780E+01  0.7546771E-02  0.2678544E+00
         22   -1    0    0    0    0  0.00000000000E+00  0.00000000000E+00  0.42158394280E+01  0.42158394280E+01  0.00000000000E+00 0. -1.
         22   -1    0    0    0    0 -0.00000000000E+00 -0.00000000000E+00 -0.26758388836E+01  0.26758388836E+01  0.00000000000E+00 0.  1.
          4    1    1    2  501    0 -0.15488657686E+01  0.16099321714E+01  0.29887748942E+01  0.39416420606E+01  0.12700000000E+01 0. -1.
         -4    1    1    2    0  501  0.15488657686E+01 -0.16099321714E+01 -0.14487743498E+01  0.29500362510E+01  0.12700000000E+01 0. -1.
<mgrwt>
<rscale>  0 0.25697795E+01</rscale>
<asrwt>0</asrwt>
<pdfrwt beam="1">0</pdfrwt>
<pdfrwt beam="2">0</pdfrwt>
<totfact> 0.14305125E+12</totfact>
</mgrwt>
</event>
<event>
 4    1  0.1750553E+006  0.3410489E+01  0.7546771E-02  0.2406478E+00
         22   -1    0    0    0    0  0.00000000000E+00  0.00000000000E+00  0.19868355043E+01  0.19868355043E+01  0.00000000000E+00 0.  1.
         22   -1    0    0    0    0 -0.00000000000E+00 -0.00000000000E+00 -0.81059465473E+01  0.81059465473E+01  0.00000000000E+00 0. -1.
          4    1    1    2  501    0  0.29831847008E+01 -0.10578946410E+01 -0.39984758691E+00  0.34338477141E+01  0.12700000000E+01 0. -1.
         -4    1    1    2    0  501 -0.29831847008E+01  0.10578946410E+01 -0.57192634561E+01  0.66589343375E+01  0.12700000000E+01 0.  1.
<mgrwt>
<rscale>  0 0.34104885E+01</rscale>
<asrwt>0</asrwt>
<pdfrwt beam="1">0</pdfrwt>
<pdfrwt beam="2">0</pdfrwt>
<totfact> 0.92864811E+11</totfact>
</mgrwt>
</event>
<event>
 4    1  0.1750553E+006  0.3099430E+01  0.7546771E-02  0.2491663E+00
         22   -1    0    0    0    0  0.00000000000E+00  0.00000000000E+00  0.17134684898E+02  0.17134684898E+02  0.00000000000E+00 0.  1.
         22   -1    0    0    0    0 -0.00000000000E+00 -0.00000000000E+00 -0.84685787008E+00  0.84685787008E+00  0.00000000000E+00 0. -1.
          4    1    1    2  501    0  0.86312214359E+00 -0.26923196841E+01  0.13370723666E+02  0.13725258339E+02  0.12700000000E+01 0.  1.
         -4    1    1    2    0  501 -0.86312214359E+00  0.26923196841E+01  0.29171033611E+01  0.42562844284E+01  0.12700000000E+01 0. -1.
<mgrwt>
<rscale>  0 0.30994298E+01</rscale>
<asrwt>0</asrwt>
<pdfrwt beam="1">0</pdfrwt>
<pdfrwt beam="2">0</pdfrwt>
<totfact> 0.99224039E+11</totfact>
</mgrwt>
</event>
<event>
 4    1  0.1750553E+006  0.2959131E+01  0.7546771E-02  0.2535255E+00
         22   -1    0    0    0    0  0.00000000000E+00  0.00000000000E+00  0.96671121279E+01  0.96671121279E+01  0.00000000000E+00 0. -1.
         22   -1    0    0    0    0 -0.00000000000E+00 -0.00000000000E+00 -0.12628396075E+01  0.12628396075E+01  0.00000000000E+00 0.  1.
          4    1    1    2  501    0 -0.17500897847E+01 -0.20200847175E+01  0.71079863650E+01  0.76993458609E+01  0.12700000000E+01 0. -1.
         -4    1    1    2    0  501  0.17500897847E+01  0.20200847175E+01  0.12962861554E+01  0.32306058746E+01  0.12700000000E+01 0.  1.
<mgrwt>
<rscale>  0 0.29591310E+01</rscale>
<asrwt>0</asrwt>
<pdfrwt beam="1">0</pdfrwt>
<pdfrwt beam="2">0</pdfrwt>
<totfact> 0.12657346E+12</totfact>
</mgrwt>
</event>
<event>
 4    1  0.1750553E+006  0.2357812E+01  0.7546771E-02  0.2774741E+00
         22   -1    0    0    0    0  0.00000000000E+00  0.00000000000E+00  0.62530887763E+01  0.62530887763E+01  0.00000000000E+00 0. -1.
         22   -1    0    0    0    0 -0.00000000000E+00 -0.00000000000E+00 -0.91485556885E+00  0.91485556885E+00  0.00000000000E+00 0. -1.
          4    1    1    2  501    0  0.98745751901E+00 -0.17237480467E+01  0.20671339719E+01  0.31356534468E+01  0.12700000000E+01 0. -1.
         -4    1    1    2    0  501 -0.98745751901E+00  0.17237480467E+01  0.32710992355E+01  0.40322908984E+01  0.12700000000E+01 0. -1.
<mgrwt>
<rscale>  0 0.23578125E+01</rscale>
<asrwt>0</asrwt>
<pdfrwt beam="1">0</pdfrwt>
<pdfrwt beam="2">0</pdfrwt>
<totfact> 0.30869081E+12</totfact>
</mgrwt>
</event>
<event>
 4    1  0.1750553E+006  0.2240969E+01  0.7546771E-02  0.2835060E+00
         22   -1    0    0    0    0  0.00000000000E+00  0.00000000000E+00  0.18013591579E+02  0.18013591579E+02  0.00000000000E+00 0.  1.
         22   -1    0    0    0    0 -0.00000000000E+00 -0.00000000000E+00 -0.22055548383E+01  0.22055548383E+01  0.00000000000E+00 0. -1.
          4    1    1    2  501    0  0.11613954410E+01 -0.14353398733E+01  0.17353079984E+02  0.17497180483E+02  0.12700000000E+01 0.  1.
         -4    1    1    2    0  501 -0.11613954410E+01  0.14353398733E+01 -0.15450432435E+01  0.27219659341E+01  0.12700000000E+01 0. -1.
<mgrwt>
<rscale>  0 0.22409685E+01</rscale>
<asrwt>0</asrwt>
<pdfrwt beam="1">0</pdfrwt>
<pdfrwt beam="2">0</pdfrwt>
<totfact> 0.31052943E+11</totfact>
</mgrwt>
</event>
<event>
 4    1  0.1750553E+006  0.2353051E+01  0.7546771E-02  0.2777088E+00
         22   -1    0    0    0    0  0.00000000000E+00  0.00000000000E+00  0.21604500031E+01  0.21604500031E+01  0.00000000000E+00 0.  1.
         22   -1    0    0    0    0 -0.00000000000E+00 -0.00000000000E+00 -0.30507008160E+01  0.30507008160E+01  0.00000000000E+00 0. -1.
          4    1    1    2  501    0 -0.10251639813E+01  0.16949892000E+01  0.59685525289E+00  0.24275678713E+01  0.12700000000E+01 0.  1.
         -4    1    1    2    0  501  0.10251639813E+01 -0.16949892000E+01 -0.14871060658E+01  0.27835829479E+01  0.12700000000E+01 0. -1.
<mgrwt>
<rscale>  0 0.23530511E+01</rscale>
<asrwt>0</asrwt>
<pdfrwt beam="1">0</pdfrwt>
<pdfrwt beam="2">0</pdfrwt>
<totfact> 0.26811292E+12</totfact>
</mgrwt>
</event>
<event>
 4    1  0.1750553E+006  0.3965000E+01  0.7546771E-02  0.2284035E+00
         22   -1    0    0    0    0  0.00000000000E+00  0.00000000000E+00  0.11161445514E+01  0.11161445514E+01  0.00000000000E+00 0. -1.
         22   -1    0    0    0    0 -0.00000000000E+00 -0.00000000000E+00 -0.14091283254E+02  0.14091283254E+02  0.00000000000E+00 0.  1.
          4    1    1    2  501    0  0.37499631125E+01  0.21470533062E+00 -0.66443584024E+01  0.77374879841E+01  0.12700000000E+01 0.  1.
         -4    1    1    2    0  501 -0.37499631125E+01 -0.21470533062E+00 -0.63307803003E+01  0.74699398213E+01  0.12700000000E+01 0. -1.
<mgrwt>
<rscale>  0 0.39649996E+01</rscale>
<asrwt>0</asrwt>
<pdfrwt beam="1">0</pdfrwt>
<pdfrwt beam="2">0</pdfrwt>
<totfact> 0.92135504E+11</totfact>
</mgrwt>
</event>
<event>
 4    1  0.1750553E+006  0.2226977E+01  0.7546771E-02  0.2842686E+00
         22   -1    0    0    0    0  0.00000000000E+00  0.00000000000E+00  0.65983260731E+00  0.65983260731E+00  0.00000000000E+00 0.  1.
         22   -1    0    0    0    0 -0.00000000000E+00 -0.00000000000E+00 -0.87105627273E+01  0.87105627273E+01  0.00000000000E+00 0. -1.
          4    1    1    2  501    0 -0.56647523865E+00  0.17394347059E+01 -0.57602662225E+01  0.61757666930E+01  0.12700000000E+01 0.  1.
         -4    1    1    2    0  501  0.56647523865E+00 -0.17394347059E+01 -0.22904638975E+01  0.31946286417E+01  0.12700000000E+01 0. -1.
<mgrwt>
<rscale>  0 0.22269772E+01</rscale>
<asrwt>0</asrwt>
<pdfrwt beam="1">0</pdfrwt>
<pdfrwt beam="2">0</pdfrwt>
<totfact> 0.30087997E+12</totfact>
</mgrwt>
</event>
<event>
 4    1  0.1750553E+006  0.2354925E+01  0.7546771E-02  0.2776163E+00
         22   -1    0    0    0    0  0.00000000000E+00  0.00000000000E+00  0.43441281377E+02  0.43441281377E+02  0.00000000000E+00 0.  1.
         22   -1    0    0    0    0 -0.00000000000E+00 -0.00000000000E+00 -0.18469001903E+00  0.18469001903E+00  0.00000000000E+00 0. -1.
          4    1    1    2  501    0 -0.69709736192E+00  0.18565626391E+01  0.33749591569E+02  0.33831650871E+02  0.12700000000E+01 0.  1.
         -4    1    1    2    0  501  0.69709736192E+00 -0.18565626391E+01  0.95069997890E+01  0.97943205254E+01  0.12700000000E+01 0. -1.
<mgrwt>
<rscale>  0 0.23549245E+01</rscale>
<asrwt>0</asrwt>
<pdfrwt beam="1">0</pdfrwt>
<pdfrwt beam="2">0</pdfrwt>
<totfact> 0.16925404E+12</totfact>
</mgrwt>
</event>
<event>
 4    1  0.1750553E+006  0.2028493E+01  0.7546771E-02  0.2961754E+00
         22   -1    0    0    0    0  0.00000000000E+00  0.00000000000E+00  0.19934173356E+02  0.19934173356E+02  0.00000000000E+00 0. -1.
         22   -1    0    0    0    0 -0.00000000000E+00 -0.00000000000E+00 -0.51368561266E+00  0.51368561266E+00  0.00000000000E+00 0. -1.
          4    1    1    2  501    0 -0.14306007646E+01 -0.67473232349E+00  0.17617525022E+02  0.17733921455E+02  0.12700000000E+01 0. -1.
         -4    1    1    2    0  501  0.14306007646E+01  0.67473232349E+00  0.18029627215E+01  0.27139375142E+01  0.12700000000E+01 0. -1.
<mgrwt>
<rscale>  0 0.20284926E+01</rscale>
<asrwt>0</asrwt>
<pdfrwt beam="1">0</pdfrwt>
<pdfrwt beam="2">0</pdfrwt>
<totfact> 0.14492514E+12</totfact>
</mgrwt>
</event>
<event>
 4    1  0.1750553E+006  0.4460760E+01  0.7546771E-02  0.2197016E+00
         22   -1    0    0    0    0  0.00000000000E+00  0.00000000000E+00  0.12162964169E+02  0.12162964169E+02  0.00000000000E+00 0. -1.
         22   -1    0    0    0    0 -0.00000000000E+00 -0.00000000000E+00 -0.39733949169E+01  0.39733949169E+01  0.00000000000E+00 0.  1.
          4    1    1    2  501    0  0.42657632877E+01  0.29790106803E+00  0.10282958053E+02  0.11208818305E+02  0.12700000000E+01 0. -1.
         -4    1    1    2    0  501 -0.42657632877E+01 -0.29790106803E+00 -0.20933888012E+01  0.49275407807E+01  0.12700000000E+01 0.  1.
<mgrwt>
<rscale>  0 0.44607602E+01</rscale>
<asrwt>0</asrwt>
<pdfrwt beam="1">0</pdfrwt>
<pdfrwt beam="2">0</pdfrwt>
<totfact> 0.25313614E+11</totfact>
</mgrwt>
</event>
<event>
 4    1  0.1750553E+006  0.7247086E+01  0.7546771E-02  0.1923112E+00
         22   -1    0    0    0    0  0.00000000000E+00  0.00000000000E+00  0.12085411759E+01  0.12085411759E+01  0.00000000000E+00 0.  1.
         22   -1    0    0    0    0 -0.00000000000E+00 -0.00000000000E+00 -0.89805778146E+02  0.89805778146E+02  0.00000000000E+00 0. -1.
          4    1    1    2  501    0  0.67148594565E+01 -0.24120559970E+01 -0.11606421506E+02  0.13683174771E+02  0.12700000000E+01 0.  1.
         -4    1    1    2    0  501 -0.67148594565E+01  0.24120559970E+01 -0.76990815465E+02  0.77331144551E+02  0.12700000000E+01 0. -1.
<mgrwt>
<rscale>  0 0.72470857E+01</rscale>
<asrwt>0</asrwt>
<pdfrwt beam="1">0</pdfrwt>
<pdfrwt beam="2">0</pdfrwt>
<totfact> 0.76460338E+10</totfact>
</mgrwt>
</event>
<event>
 4    1  0.1750553E+006  0.2418791E+01  0.7546771E-02  0.2745453E+00
         22   -1    0    0    0    0  0.00000000000E+00  0.00000000000E+00  0.95346056370E-01  0.95346056370E-01  0.00000000000E+00 0. -1.
         22   -1    0    0    0    0 -0.00000000000E+00 -0.00000000000E+00 -0.67999780947E+02  0.67999780947E+02  0.00000000000E+00 0.  1.
          4    1    1    2  501    0  0.19487183748E+01 -0.66343408434E+00 -0.23313971466E+02  0.23439108635E+02  0.12700000000E+01 0. -1.
         -4    1    1    2    0  501 -0.19487183748E+01  0.66343408434E+00 -0.44590463425E+02  0.44656018368E+02  0.12700000000E+01 0.  1.
<mgrwt>
<rscale>  0 0.24187906E+01</rscale>
<asrwt>0</asrwt>
<pdfrwt beam="1">0</pdfrwt>
<pdfrwt beam="2">0</pdfrwt>
<totfact> 0.19449911E+12</totfact>
</mgrwt>
</event>
<event>
 4    1  0.1750553E+006  0.2203916E+01  0.7546771E-02  0.2855458E+00
         22   -1    0    0    0    0  0.00000000000E+00  0.00000000000E+00  0.36935363021E+02  0.36935363021E+02  0.00000000000E+00 0. -1.
         22   -1    0    0    0    0 -0.00000000000E+00 -0.00000000000E+00 -0.16617128376E+00  0.16617128376E+00  0.00000000000E+00 0.  1.
          4    1    1    2  501    0 -0.12399138480E+01  0.13065057691E+01  0.26857407768E+02  0.26947682566E+02  0.12700000000E+01 0. -1.
         -4    1    1    2    0  501  0.12399138480E+01 -0.13065057691E+01  0.99117839698E+01  0.10153851739E+02  0.12700000000E+01 0. -1.
<mgrwt>
<rscale>  0 0.22039155E+01</rscale>
<asrwt>0</asrwt>
<pdfrwt beam="1">0</pdfrwt>
<pdfrwt beam="2">0</pdfrwt>
<totfact> 0.23501487E+12</totfact>
</mgrwt>
</event>
<event>
 4    1  0.1750553E+006  0.3685989E+01  0.7546771E-02  0.2341662E+00
         22   -1    0    0    0    0  0.00000000000E+00  0.00000000000E+00  0.31673019076E+02  0.31673019076E+02  0.00000000000E+00 0.  1.
         22   -1    0    0    0    0 -0.00000000000E+00 -0.00000000000E+00 -0.13183804833E+01  0.13183804833E+01  0.00000000000E+00 0. -1.
          4    1    1    2  501    0 -0.34003322798E+01  0.64137271034E+00  0.28726201280E+02  0.28961718847E+02  0.12700000000E+01 0.  1.
         -4    1    1    2    0  501  0.34003322798E+01 -0.64137271034E+00  0.16284373130E+01  0.40296807130E+01  0.12700000000E+01 0. -1.
<mgrwt>
<rscale>  0 0.36859895E+01</rscale>
<asrwt>0</asrwt>
<pdfrwt beam="1">0</pdfrwt>
<pdfrwt beam="2">0</pdfrwt>
<totfact> 0.27634340E+11</totfact>
</mgrwt>
</event>
<event>
 4    1  0.1750553E+006  0.2563171E+01  0.7546771E-02  0.2681319E+00
         22   -1    0    0    0    0  0.00000000000E+00  0.00000000000E+00  0.91439714895E+00  0.91439714895E+00  0.00000000000E+00 0.  1.
         22   -1    0    0    0    0 -0.00000000000E+00 -0.00000000000E+00 -0.76992553044E+01  0.76992553044E+01  0.00000000000E+00 0. -1.
          4    1    1    2  501    0  0.17251669819E+01 -0.14073892693E+01 -0.22792435358E+01  0.34299849513E+01  0.12700000000E+01 0.  1.
         -4    1    1    2    0  501 -0.17251669819E+01  0.14073892693E+01 -0.45056146196E+01  0.51836675020E+01  0.12700000000E+01 0. -1.
<mgrwt>
<rscale>  0 0.25631710E+01</rscale>
<asrwt>0</asrwt>
<pdfrwt beam="1">0</pdfrwt>
<pdfrwt beam="2">0</pdfrwt>
<totfact> 0.24084152E+12</totfact>
</mgrwt>
</event>
<event>
 4    1  0.1750553E+006  0.2083435E+01  0.7546771E-02  0.2926597E+00
         22   -1    0    0    0    0  0.00000000000E+00  0.00000000000E+00  0.20959485707E+00  0.20959485707E+00  0.00000000000E+00 0.  1.
         22   -1    0    0    0    0 -0.00000000000E+00 -0.00000000000E+00 -0.25642973079E+02  0.25642973079E+02  0.00000000000E+00 0. -1.
          4    1    1    2  501    0  0.11927321968E+01 -0.11424492847E+01 -0.70471758811E+01  0.73486997734E+01  0.12700000000E+01 0.  1.
         -4    1    1    2    0  501 -0.11927321968E+01  0.11424492847E+01 -0.18386202341E+02  0.18503868163E+02  0.12700000000E+01 0. -1.
<mgrwt>
<rscale>  0 0.20834348E+01</rscale>
<asrwt>0</asrwt>
<pdfrwt beam="1">0</pdfrwt>
<pdfrwt beam="2">0</pdfrwt>
<totfact> 0.28906845E+12</totfact>
</mgrwt>
</event>
<event>
 4    1  0.1750553E+006  0.3000555E+01  0.7546771E-02  0.2522005E+00
         22   -1    0    0    0    0  0.00000000000E+00  0.00000000000E+00  0.24817598660E+01  0.24817598660E+01  0.00000000000E+00 0.  1.
         22   -1    0    0    0    0 -0.00000000000E+00 -0.00000000000E+00 -0.90587358071E+01  0.90587358071E+01  0.00000000000E+00 0. -1.
          4    1    1    2  501    0 -0.26795123820E+01  0.45895711330E+00  0.11793561030E+01  0.32240051263E+01  0.12700000000E+01 0.  1.
         -4    1    1    2    0  501  0.26795123820E+01 -0.45895711330E+00 -0.77563320441E+01  0.83164905468E+01  0.12700000000E+01 0. -1.
<mgrwt>
<rscale>  0 0.30005547E+01</rscale>
<asrwt>0</asrwt>
<pdfrwt beam="1">0</pdfrwt>
<pdfrwt beam="2">0</pdfrwt>
<totfact> 0.62757168E+11</totfact>
</mgrwt>
</event>
<event>
 4    1  0.1750553E+006  0.3998025E+01  0.7546771E-02  0.2277672E+00
         22   -1    0    0    0    0  0.00000000000E+00  0.00000000000E+00  0.60562257149E+01  0.60562257149E+01  0.00000000000E+00 0.  1.
         22   -1    0    0    0    0 -0.00000000000E+00 -0.00000000000E+00 -0.27123403625E+01  0.27123403625E+01  0.00000000000E+00 0. -1.
          4    1    1    2  501    0  0.37832087527E+01  0.24215337656E+00  0.23913965335E+01  0.46586461665E+01  0.12700000000E+01 0.  1.
         -4    1    1    2    0  501 -0.37832087527E+01 -0.24215337656E+00  0.95248881889E+00  0.41099199109E+01  0.12700000000E+01 0. -1.
<mgrwt>
<rscale>  0 0.39980254E+01</rscale>
<asrwt>0</asrwt>
<pdfrwt beam="1">0</pdfrwt>
<pdfrwt beam="2">0</pdfrwt>
<totfact> 0.91688360E+11</totfact>
</mgrwt>
</event>
<event>
 4    1  0.1750553E+006  0.2126297E+01  0.7546771E-02  0.2900396E+00
         22   -1    0    0    0    0  0.00000000000E+00  0.00000000000E+00  0.13776032633E+02  0.13776032633E+02  0.00000000000E+00 0. -1.
         22   -1    0    0    0    0 -0.00000000000E+00 -0.00000000000E+00 -0.35825343726E+00  0.35825343726E+00  0.00000000000E+00 0.  1.
          4    1    1    2  501    0  0.14692856558E+01  0.86570202572E+00  0.87561651792E+01  0.90106364360E+01  0.12700000000E+01 0.  1.
         -4    1    1    2    0  501 -0.14692856558E+01 -0.86570202572E+00  0.46616140162E+01  0.51236496340E+01  0.12700000000E+01 0. -1.
<mgrwt>
<rscale>  0 0.21262973E+01</rscale>
<asrwt>0</asrwt>
<pdfrwt beam="1">0</pdfrwt>
<pdfrwt beam="2">0</pdfrwt>
<totfact> 0.34346304E+12</totfact>
</mgrwt>
</event>
<event>
 4    1  0.1750553E+006  0.2144808E+01  0.7546771E-02  0.2889395E+00
         22   -1    0    0    0    0  0.00000000000E+00  0.00000000000E+00  0.24364996568E+02  0.24364996568E+02  0.00000000000E+00 0.  1.
         22   -1    0    0    0    0 -0.00000000000E+00 -0.00000000000E+00 -0.18969281504E+00  0.18969281504E+00  0.00000000000E+00 0.  1.
          4    1    1    2  501    0 -0.16837778622E+01 -0.39011860100E+00  0.12928212264E+02  0.13104917884E+02  0.12700000000E+01 0.  1.
         -4    1    1    2    0  501  0.16837778622E+01  0.39011860100E+00  0.11247091490E+02  0.11449771499E+02  0.12700000000E+01 0.  1.
<mgrwt>
<rscale>  0 0.21448078E+01</rscale>
<asrwt>0</asrwt>
<pdfrwt beam="1">0</pdfrwt>
<pdfrwt beam="2">0</pdfrwt>
<totfact> 0.34462692E+12</totfact>
</mgrwt>
</event>
<event>
 4    1  0.1750553E+006  0.4198494E+01  0.7546771E-02  0.2240885E+00
         22   -1    0    0    0    0  0.00000000000E+00  0.00000000000E+00  0.12322999597E+01  0.12322999597E+01  0.00000000000E+00 0. -1.
         22   -1    0    0    0    0 -0.00000000000E+00 -0.00000000000E+00 -0.15713456467E+02  0.15713456467E+02  0.00000000000E+00 0.  1.
          4    1    1    2  501    0 -0.25959085955E+01  0.30456057222E+01 -0.47033836248E+01  0.63046945345E+01  0.12700000000E+01 0. -1.
         -4    1    1    2    0  501  0.25959085955E+01 -0.30456057222E+01 -0.97777728823E+01  0.10641061892E+02  0.12700000000E+01 0.  1.
<mgrwt>
<rscale>  0 0.41984945E+01</rscale>
<asrwt>0</asrwt>
<pdfrwt beam="1">0</pdfrwt>
<pdfrwt beam="2">0</pdfrwt>
<totfact> 0.71940261E+11</totfact>
</mgrwt>
</event>
<event>
 4    1  0.1750553E+006  0.2931274E+01  0.7546771E-02  0.2544354E+00
         22   -1    0    0    0    0  0.00000000000E+00  0.00000000000E+00  0.11966894980E+02  0.11966894980E+02  0.00000000000E+00 0. -1.
         22   -1    0    0    0    0 -0.00000000000E+00 -0.00000000000E+00 -0.11211412746E+01  0.11211412746E+01  0.00000000000E+00 0.  1.
          4    1    1    2  501    0 -0.21302956897E+01  0.15624685220E+01  0.93469472340E+01  0.97958047246E+01  0.12700000000E+01 0. -1.
         -4    1    1    2    0  501  0.21302956897E+01 -0.15624685220E+01  0.14988064714E+01  0.32922315299E+01  0.12700000000E+01 0.  1.
<mgrwt>
<rscale>  0 0.29312741E+01</rscale>
<asrwt>0</asrwt>
<pdfrwt beam="1">0</pdfrwt>
<pdfrwt beam="2">0</pdfrwt>
<totfact> 0.11194731E+12</totfact>
</mgrwt>
</event>
<event>
 4    1  0.1750553E+006  0.2051466E+01  0.7546771E-02  0.2946830E+00
         22   -1    0    0    0    0  0.00000000000E+00  0.00000000000E+00  0.56686110627E+01  0.56686110627E+01  0.00000000000E+00 0. -1.
         22   -1    0    0    0    0 -0.00000000000E+00 -0.00000000000E+00 -0.74942341639E+00  0.74942341639E+00  0.00000000000E+00 0. -1.
          4    1    1    2  501    0  0.12947448267E+01  0.95877405364E+00  0.27697247442E+01  0.34467211971E+01  0.12700000000E+01 0. -1.
         -4    1    1    2    0  501 -0.12947448267E+01 -0.95877405364E+00  0.21494629022E+01  0.29713132820E+01  0.12700000000E+01 0. -1.
<mgrwt>
<rscale>  0 0.20514658E+01</rscale>
<asrwt>0</asrwt>
<pdfrwt beam="1">0</pdfrwt>
<pdfrwt beam="2">0</pdfrwt>
<totfact> 0.43533074E+12</totfact>
</mgrwt>
</event>
<event>
 4    1  0.1750553E+006  0.2622990E+01  0.7546771E-02  0.2656672E+00
         22   -1    0    0    0    0  0.00000000000E+00  0.00000000000E+00  0.26277176147E+02  0.26277176147E+02  0.00000000000E+00 0. -1.
         22   -1    0    0    0    0 -0.00000000000E+00 -0.00000000000E+00 -0.66738450173E+00  0.66738450173E+00  0.00000000000E+00 0. -1.
          4    1    1    2  501    0  0.16195030126E+01  0.16261567163E+01  0.23307070605E+02  0.23454202521E+02  0.12700000000E+01 0. -1.
         -4    1    1    2    0  501 -0.16195030126E+01 -0.16261567163E+01  0.23027210394E+01  0.34903581277E+01  0.12700000000E+01 0. -1.
<mgrwt>
<rscale>  0 0.26229898E+01</rscale>
<asrwt>0</asrwt>
<pdfrwt beam="1">0</pdfrwt>
<pdfrwt beam="2">0</pdfrwt>
<totfact> 0.76184475E+11</totfact>
</mgrwt>
</event>
<event>
 4    1  0.1750553E+006  0.2471359E+01  0.7546771E-02  0.2721293E+00
         22   -1    0    0    0    0  0.00000000000E+00  0.00000000000E+00  0.18788762615E+00  0.18788762615E+00  0.00000000000E+00 0.  1.
         22   -1    0    0    0    0 -0.00000000000E+00 -0.00000000000E+00 -0.51412967533E+02  0.51412967533E+02  0.00000000000E+00 0. -1.
          4    1    1    2  501    0 -0.11629190306E+01  0.17726625702E+01 -0.99669095810E+01  0.10268734092E+02  0.12700000000E+01 0.  1.
         -4    1    1    2    0  501  0.11629190306E+01 -0.17726625702E+01 -0.41258170326E+02  0.41332121067E+02  0.12700000000E+01 0. -1.
<mgrwt>
<rscale>  0 0.24713586E+01</rscale>
<asrwt>0</asrwt>
<pdfrwt beam="1">0</pdfrwt>
<pdfrwt beam="2">0</pdfrwt>
<totfact> 0.13308701E+12</totfact>
</mgrwt>
</event>
<event>
 4    1  0.1750553E+006  0.2492029E+01  0.7546771E-02  0.2712055E+00
         22   -1    0    0    0    0  0.00000000000E+00  0.00000000000E+00  0.44639665065E+02  0.44639665065E+02  0.00000000000E+00 0. -1.
         22   -1    0    0    0    0 -0.00000000000E+00 -0.00000000000E+00 -0.19758366248E+00  0.19758366248E+00  0.00000000000E+00 0.  1.
          4    1    1    2  501    0 -0.20398366878E+01 -0.66058763725E+00  0.34416031712E+02  0.34506136390E+02  0.12700000000E+01 0. -1.
         -4    1    1    2    0  501  0.20398366878E+01  0.66058763725E+00  0.10026049690E+02  0.10331112337E+02  0.12700000000E+01 0.  1.
<mgrwt>
<rscale>  0 0.24920292E+01</rscale>
<asrwt>0</asrwt>
<pdfrwt beam="1">0</pdfrwt>
<pdfrwt beam="2">0</pdfrwt>
<totfact> 0.15150559E+12</totfact>
</mgrwt>
</event>
<event>
 4    1  0.1750553E+006  0.3052929E+01  0.7546771E-02  0.2505714E+00
         22   -1    0    0    0    0  0.00000000000E+00  0.00000000000E+00  0.92237020319E+00  0.92237020319E+00  0.00000000000E+00 0.  1.
         22   -1    0    0    0    0 -0.00000000000E+00 -0.00000000000E+00 -0.10745824994E+02  0.10745824994E+02  0.00000000000E+00 0. -1.
          4    1    1    2  501    0 -0.27762340759E+01 -0.95588702467E-03 -0.34868169496E+01  0.46344653411E+01  0.12700000000E+01 0.  1.
         -4    1    1    2    0  501  0.27762340759E+01  0.95588702467E-03 -0.63366378413E+01  0.70337298562E+01  0.12700000000E+01 0. -1.
<mgrwt>
<rscale>  0 0.30529292E+01</rscale>
<asrwt>0</asrwt>
<pdfrwt beam="1">0</pdfrwt>
<pdfrwt beam="2">0</pdfrwt>
<totfact> 0.15947741E+12</totfact>
</mgrwt>
</event>
<event>
 4    1  0.1750553E+006  0.3590444E+01  0.7546771E-02  0.2363160E+00
         22   -1    0    0    0    0  0.00000000000E+00  0.00000000000E+00  0.35100925985E+01  0.35100925985E+01  0.00000000000E+00 0.  1.
         22   -1    0    0    0    0 -0.00000000000E+00 -0.00000000000E+00 -0.62905794437E+01  0.62905794437E+01  0.00000000000E+00 0.  1.
          4    1    1    2  501    0 -0.12685731422E+01  0.31095195363E+01  0.17710203424E+01  0.40034738187E+01  0.12700000000E+01 0.  1.
         -4    1    1    2    0  501  0.12685731422E+01 -0.31095195363E+01 -0.45515071875E+01  0.57971982235E+01  0.12700000000E+01 0.  1.
<mgrwt>
<rscale>  0 0.35904442E+01</rscale>
<asrwt>0</asrwt>
<pdfrwt beam="1">0</pdfrwt>
<pdfrwt beam="2">0</pdfrwt>
<totfact> 0.64828965E+11</totfact>
</mgrwt>
</event>
<event>
 4    1  0.1750553E+006  0.2128665E+01  0.7546771E-02  0.2898979E+00
         22   -1    0    0    0    0  0.00000000000E+00  0.00000000000E+00  0.92460598684E+01  0.92460598684E+01  0.00000000000E+00 0.  1.
         22   -1    0    0    0    0 -0.00000000000E+00 -0.00000000000E+00 -0.94270857021E+00  0.94270857021E+00  0.00000000000E+00 0.  1.
          4    1    1    2  501    0  0.94050330904E+00  0.14261029989E+01  0.76817086433E+01  0.79711896175E+01  0.12700000000E+01 0.  1.
         -4    1    1    2    0  501 -0.94050330904E+00 -0.14261029989E+01  0.62164265496E+00  0.22175788212E+01  0.12700000000E+01 0.  1.
<mgrwt>
<rscale>  0 0.21286654E+01</rscale>
<asrwt>0</asrwt>
<pdfrwt beam="1">0</pdfrwt>
<pdfrwt beam="2">0</pdfrwt>
<totfact> 0.18659653E+12</totfact>
</mgrwt>
</event>
<event>
 4    1  0.1750553E+006  0.2254733E+01  0.7546771E-02  0.2827646E+00
         22   -1    0    0    0    0  0.00000000000E+00  0.00000000000E+00  0.26060097005E+01  0.26060097005E+01  0.00000000000E+00 0.  1.
         22   -1    0    0    0    0 -0.00000000000E+00 -0.00000000000E+00 -0.37886119202E+01  0.37886119202E+01  0.00000000000E+00 0. -1.
          4    1    1    2  501    0  0.10108476565E+01 -0.15649620443E+01  0.16355676690E+01  0.27854803508E+01  0.12700000000E+01 0.  1.
         -4    1    1    2    0  501 -0.10108476565E+01  0.15649620443E+01 -0.28181698887E+01  0.36091412700E+01  0.12700000000E+01 0. -1.
<mgrwt>
<rscale>  0 0.22547326E+01</rscale>
<asrwt>0</asrwt>
<pdfrwt beam="1">0</pdfrwt>
<pdfrwt beam="2">0</pdfrwt>
<totfact> 0.16728468E+12</totfact>
</mgrwt>
</event>
<event>
 4    1  0.1750553E+006  0.2660982E+01  0.7546771E-02  0.2641549E+00
         22   -1    0    0    0    0  0.00000000000E+00  0.00000000000E+00  0.22893527298E+00  0.22893527298E+00  0.00000000000E+00 0. -1.
         22   -1    0    0    0    0 -0.00000000000E+00 -0.00000000000E+00 -0.89334111073E+02  0.89334111073E+02  0.00000000000E+00 0. -1.
          4    1    1    2  501    0  0.14754960353E+01  0.18140667602E+01 -0.83437819026E+01  0.87578263970E+01  0.12700000000E+01 0. -1.
         -4    1    1    2    0  501 -0.14754960353E+01 -0.18140667602E+01 -0.80761393898E+02  0.80805219949E+02  0.12700000000E+01 0. -1.
<mgrwt>
<rscale>  0 0.26609823E+01</rscale>
<asrwt>0</asrwt>
<pdfrwt beam="1">0</pdfrwt>
<pdfrwt beam="2">0</pdfrwt>
<totfact> 0.50526632E+11</totfact>
</mgrwt>
</event>
<event>
 4    1  0.1750553E+006  0.2602739E+01  0.7546771E-02  0.2664898E+00
         22   -1    0    0    0    0  0.00000000000E+00  0.00000000000E+00  0.55279513672E+01  0.55279513672E+01  0.00000000000E+00 0. -1.
         22   -1    0    0    0    0 -0.00000000000E+00 -0.00000000000E+00 -0.24008812351E+01  0.24008812351E+01  0.00000000000E+00 0.  1.
          4    1    1    2  501    0 -0.14657285647E+01 -0.17357971239E+01  0.43374410039E+01  0.50584233061E+01  0.12700000000E+01 0. -1.
         -4    1    1    2    0  501  0.14657285647E+01  0.17357971239E+01 -0.12103708718E+01  0.28704092963E+01  0.12700000000E+01 0.  1.
<mgrwt>
<rscale>  0 0.26027393E+01</rscale>
<asrwt>0</asrwt>
<pdfrwt beam="1">0</pdfrwt>
<pdfrwt beam="2">0</pdfrwt>
<totfact> 0.11778361E+12</totfact>
</mgrwt>
</event>
<event>
 4    1  0.1750553E+006  0.2889809E+01  0.7546771E-02  0.2558191E+00
         22   -1    0    0    0    0  0.00000000000E+00  0.00000000000E+00  0.13121481904E+02  0.13121481904E+02  0.00000000000E+00 0.  1.
         22   -1    0    0    0    0 -0.00000000000E+00 -0.00000000000E+00 -0.10009223318E+01  0.10009223318E+01  0.00000000000E+00 0. -1.
          4    1    1    2  501    0  0.22381070702E+01  0.13149041897E+01  0.17992114976E+01  0.34041384077E+01  0.12700000000E+01 0. -1.
         -4    1    1    2    0  501 -0.22381070702E+01 -0.13149041897E+01  0.10321348075E+02  0.10718265828E+02  0.12700000000E+01 0. -1.
<mgrwt>
<rscale>  0 0.28898090E+01</rscale>
<asrwt>0</asrwt>
<pdfrwt beam="1">0</pdfrwt>
<pdfrwt beam="2">0</pdfrwt>
<totfact> 0.11388450E+12</totfact>
</mgrwt>
</event>
<event>
 4    1  0.1750553E+006  0.2866226E+01  0.7546771E-02  0.2566222E+00
         22   -1    0    0    0    0  0.00000000000E+00  0.00000000000E+00  0.96354326595E+00  0.96354326595E+00  0.00000000000E+00 0.  1.
         22   -1    0    0    0    0 -0.00000000000E+00 -0.00000000000E+00 -0.23219542792E+02  0.23219542792E+02  0.00000000000E+00 0.  1.
          4    1    1    2  501    0 -0.13321420212E+01 -0.21972140159E+01 -0.15092882722E+01  0.32393213618E+01  0.12700000000E+01 0.  1.
         -4    1    1    2    0  501  0.13321420212E+01  0.21972140159E+01 -0.20746711254E+02  0.20943764696E+02  0.12700000000E+01 0.  1.
<mgrwt>
<rscale>  0 0.28662261E+01</rscale>
<asrwt>0</asrwt>
<pdfrwt beam="1">0</pdfrwt>
<pdfrwt beam="2">0</pdfrwt>
<totfact> 0.58632974E+11</totfact>
</mgrwt>
</event>
<event>
 4    1  0.1750553E+006  0.2055774E+01  0.7546771E-02  0.2944068E+00
         22   -1    0    0    0    0  0.00000000000E+00  0.00000000000E+00  0.77829271267E+01  0.77829271267E+01  0.00000000000E+00 0. -1.
         22   -1    0    0    0    0 -0.00000000000E+00 -0.00000000000E+00 -0.76968131687E+00  0.76968131687E+00  0.00000000000E+00 0. -1.
          4    1    1    2  501    0  0.11902832195E+01  0.10938613180E+01  0.58272826616E+01  0.61792742247E+01  0.12700000000E+01 0. -1.
         -4    1    1    2    0  501 -0.11902832195E+01 -0.10938613180E+01  0.11859631482E+01  0.23733342189E+01  0.12700000000E+01 0. -1.
<mgrwt>
<rscale>  0 0.20557740E+01</rscale>
<asrwt>0</asrwt>
<pdfrwt beam="1">0</pdfrwt>
<pdfrwt beam="2">0</pdfrwt>
<totfact> 0.28923455E+12</totfact>
</mgrwt>
</event>
<event>
 4    1  0.1750553E+006  0.2707747E+01  0.7546771E-02  0.2623470E+00
         22   -1    0    0    0    0  0.00000000000E+00  0.00000000000E+00  0.55231729747E+02  0.55231729747E+02  0.00000000000E+00 0. -1.
         22   -1    0    0    0    0 -0.00000000000E+00 -0.00000000000E+00 -0.16764833633E+00  0.16764833633E+00  0.00000000000E+00 0.  1.
          4    1    1    2  501    0  0.16174372973E+01 -0.17615027722E+01  0.40170402334E+02  0.40261558826E+02  0.12700000000E+01 0. -1.
         -4    1    1    2    0  501 -0.16174372973E+01  0.17615027722E+01  0.14893679077E+02  0.15137819257E+02  0.12700000000E+01 0.  1.
<mgrwt>
<rscale>  0 0.27077473E+01</rscale>
<asrwt>0</asrwt>
<pdfrwt beam="1">0</pdfrwt>
<pdfrwt beam="2">0</pdfrwt>
<totfact> 0.13741765E+12</totfact>
</mgrwt>
</event>
<event>
 4    1  0.1750553E+006  0.2764606E+01  0.7546771E-02  0.2602244E+00
         22   -1    0    0    0    0  0.00000000000E+00  0.00000000000E+00  0.15344495054E+01  0.15344495054E+01  0.00000000000E+00 0. -1.
         22   -1    0    0    0    0 -0.00000000000E+00 -0.00000000000E+00 -0.53477345422E+01  0.53477345422E+01  0.00000000000E+00 0.  1.
          4    1    1    2  501    0  0.75160449758E+00  0.23377841248E+01 -0.10054736044E+01  0.29417717627E+01  0.12700000000E+01 0. -1.
         -4    1    1    2    0  501 -0.75160449758E+00 -0.23377841248E+01 -0.28078114324E+01  0.39404122849E+01  0.12700000000E+01 0.  1.
<mgrwt>
<rscale>  0 0.27646056E+01</rscale>
<asrwt>0</asrwt>
<pdfrwt beam="1">0</pdfrwt>
<pdfrwt beam="2">0</pdfrwt>
<totfact> 0.20559739E+12</totfact>
</mgrwt>
</event>
<event>
 4    1  0.1750553E+006  0.4746159E+01  0.7546771E-02  0.2154580E+00
         22   -1    0    0    0    0  0.00000000000E+00  0.00000000000E+00  0.66842562239E+01  0.66842562239E+01  0.00000000000E+00 0. -1.
         22   -1    0    0    0    0 -0.00000000000E+00 -0.00000000000E+00 -0.53739258233E+01  0.53739258233E+01  0.00000000000E+00 0.  1.
          4    1    1    2  501    0  0.76609858888E+00  0.45084609158E+01  0.43368404307E+01  0.64291688264E+01  0.12700000000E+01 0. -1.
         -4    1    1    2    0  501 -0.76609858888E+00 -0.45084609158E+01 -0.30265100301E+01  0.56290132208E+01  0.12700000000E+01 0.  1.
<mgrwt>
<rscale>  0 0.47461592E+01</rscale>
<asrwt>0</asrwt>
<pdfrwt beam="1">0</pdfrwt>
<pdfrwt beam="2">0</pdfrwt>
<totfact> 0.36487902E+11</totfact>
</mgrwt>
</event>
<event>
 4    1  0.1750553E+006  0.2099296E+01  0.7546771E-02  0.2916780E+00
         22   -1    0    0    0    0  0.00000000000E+00  0.00000000000E+00  0.28573209194E+01  0.28573209194E+01  0.00000000000E+00 0. -1.
         22   -1    0    0    0    0 -0.00000000000E+00 -0.00000000000E+00 -0.16765202479E+01  0.16765202479E+01  0.00000000000E+00 0.  1.
          4    1    1    2  501    0 -0.16665172781E+01 -0.12985706662E+00  0.12316535479E+01  0.24339295713E+01  0.12700000000E+01 0. -1.
         -4    1    1    2    0  501  0.16665172781E+01  0.12985706662E+00 -0.50852876417E-01  0.20999115960E+01  0.12700000000E+01 0.  1.
<mgrwt>
<rscale>  0 0.20992958E+01</rscale>
<asrwt>0</asrwt>
<pdfrwt beam="1">0</pdfrwt>
<pdfrwt beam="2">0</pdfrwt>
<totfact> 0.38801923E+12</totfact>
</mgrwt>
</event>
<event>
 4    1  0.1750553E+006  0.2325103E+01  0.7546771E-02  0.2791047E+00
         22   -1    0    0    0    0  0.00000000000E+00  0.00000000000E+00  0.66761075612E+00  0.66761075612E+00  0.00000000000E+00 0.  1.
         22   -1    0    0    0    0 -0.00000000000E+00 -0.00000000000E+00 -0.26499583334E+02  0.26499583334E+02  0.00000000000E+00 0.  1.
          4    1    1    2  501    0 -0.50443028861E+00  0.18811576471E+01 -0.15965046812E+01  0.28204487598E+01  0.12700000000E+01 0.  1.
         -4    1    1    2    0  501  0.50443028861E+00 -0.18811576471E+01 -0.24235467897E+02  0.24346745330E+02  0.12700000000E+01 0.  1.
<mgrwt>
<rscale>  0 0.23251030E+01</rscale>
<asrwt>0</asrwt>
<pdfrwt beam="1">0</pdfrwt>
<pdfrwt beam="2">0</pdfrwt>
<totfact> 0.75345119E+11</totfact>
</mgrwt>
</event>
<event>
 4    1  0.1750553E+006  0.2960209E+01  0.7546771E-02  0.2534906E+00
         22   -1    0    0    0    0  0.00000000000E+00  0.00000000000E+00  0.57939778783E+01  0.57939778783E+01  0.00000000000E+00 0. -1.
         22   -1    0    0    0    0 -0.00000000000E+00 -0.00000000000E+00 -0.15148990948E+01  0.15148990948E+01  0.00000000000E+00 0.  1.
          4    1    1    2  501    0  0.98918000419E+00  0.24842425402E+01  0.22878358787E+01  0.37412606281E+01  0.12700000000E+01 0. -1.
         -4    1    1    2    0  501 -0.98918000419E+00 -0.24842425402E+01  0.19912429049E+01  0.35676163451E+01  0.12700000000E+01 0. -1.
<mgrwt>
<rscale>  0 0.29602091E+01</rscale>
<asrwt>0</asrwt>
<pdfrwt beam="1">0</pdfrwt>
<pdfrwt beam="2">0</pdfrwt>
<totfact> 0.18970955E+12</totfact>
</mgrwt>
</event>
<event>
 4    1  0.1750553E+006  0.2691548E+01  0.7546771E-02  0.2629667E+00
         22   -1    0    0    0    0  0.00000000000E+00  0.00000000000E+00  0.69572542173E+01  0.69572542173E+01  0.00000000000E+00 0.  1.
         22   -1    0    0    0    0 -0.00000000000E+00 -0.00000000000E+00 -0.26134629115E+01  0.26134629115E+01  0.00000000000E+00 0. -1.
          4    1    1    2  501    0 -0.23279204183E+01  0.46077820738E+00  0.58834706446E+01  0.64699039295E+01  0.12700000000E+01 0.  1.
         -4    1    1    2    0  501  0.23279204183E+01 -0.46077820738E+00 -0.15396793388E+01  0.31008131993E+01  0.12700000000E+01 0. -1.
<mgrwt>
<rscale>  0 0.26915479E+01</rscale>
<asrwt>0</asrwt>
<pdfrwt beam="1">0</pdfrwt>
<pdfrwt beam="2">0</pdfrwt>
<totfact> 0.81136205E+11</totfact>
</mgrwt>
</event>
<event>
 4    1  0.1750553E+006  0.2447180E+01  0.7546771E-02  0.2732285E+00
         22   -1    0    0    0    0  0.00000000000E+00  0.00000000000E+00  0.11716955545E+00  0.11716955545E+00  0.00000000000E+00 0.  1.
         22   -1    0    0    0    0 -0.00000000000E+00 -0.00000000000E+00 -0.51681257539E+02  0.51681257539E+02  0.00000000000E+00 0.  1.
          4    1    1    2  501    0 -0.31911023244E+00  0.20673555682E+01 -0.28501828570E+02  0.28606693661E+02  0.12700000000E+01 0.  1.
         -4    1    1    2    0  501  0.31911023244E+00 -0.20673555682E+01 -0.23062259413E+02  0.23191733433E+02  0.12700000000E+01 0.  1.
<mgrwt>
<rscale>  0 0.24471801E+01</rscale>
<asrwt>0</asrwt>
<pdfrwt beam="1">0</pdfrwt>
<pdfrwt beam="2">0</pdfrwt>
<totfact> 0.22343088E+12</totfact>
</mgrwt>
</event>
<event>
 4    1  0.1750553E+006  0.2200653E+01  0.7546771E-02  0.2857286E+00
         22   -1    0    0    0    0  0.00000000000E+00  0.00000000000E+00  0.11561918540E+01  0.11561918540E+01  0.00000000000E+00 0.  1.
         22   -1    0    0    0    0 -0.00000000000E+00 -0.00000000000E+00 -0.41934679336E+01  0.41934679336E+01  0.00000000000E+00 0. -1.
          4    1    1    2  501    0  0.17969898309E+01 -0.28271075893E-01 -0.16093950304E+01  0.27263572895E+01  0.12700000000E+01 0. -1.
         -4    1    1    2    0  501 -0.17969898309E+01  0.28271075893E-01 -0.14278810492E+01  0.26233024981E+01  0.12700000000E+01 0.  1.
<mgrwt>
<rscale>  0 0.22006526E+01</rscale>
<asrwt>0</asrwt>
<pdfrwt beam="1">0</pdfrwt>
<pdfrwt beam="2">0</pdfrwt>
<totfact> 0.37926938E+12</totfact>
</mgrwt>
</event>
<event>
 4    1  0.1750553E+006  0.2561674E+01  0.7546771E-02  0.2681949E+00
         22   -1    0    0    0    0  0.00000000000E+00  0.00000000000E+00  0.17840021467E+02  0.17840021467E+02  0.00000000000E+00 0.  1.
         22   -1    0    0    0    0 -0.00000000000E+00 -0.00000000000E+00 -0.36872155630E+00  0.36872155630E+00  0.00000000000E+00 0. -1.
          4    1    1    2  501    0  0.16623750730E+01 -0.14784394664E+01  0.82890761218E+01  0.86758836490E+01  0.12700000000E+01 0.  1.
         -4    1    1    2    0  501 -0.16623750730E+01  0.14784394664E+01  0.91822237889E+01  0.95328593742E+01  0.12700000000E+01 0. -1.
<mgrwt>
<rscale>  0 0.25616741E+01</rscale>
<asrwt>0</asrwt>
<pdfrwt beam="1">0</pdfrwt>
<pdfrwt beam="2">0</pdfrwt>
<totfact> 0.24177464E+12</totfact>
</mgrwt>
</event>
<event>
 4    1  0.1750553E+006  0.6084563E+01  0.7546771E-02  0.2012186E+00
         22   -1    0    0    0    0  0.00000000000E+00  0.00000000000E+00  0.68108335101E+01  0.68108335101E+01  0.00000000000E+00 0. -1.
         22   -1    0    0    0    0 -0.00000000000E+00 -0.00000000000E+00 -0.55261388392E+01  0.55261388392E+01  0.00000000000E+00 0.  1.
          4    1    1    2  501    0  0.56024895879E+01  0.20052712312E+01  0.14313081297E+01  0.62506435873E+01  0.12700000000E+01 0. -1.
         -4    1    1    2    0  501 -0.56024895879E+01 -0.20052712312E+01 -0.14661345886E+00  0.60863287620E+01  0.12700000000E+01 0.  1.
<mgrwt>
<rscale>  0 0.60845626E+01</rscale>
<asrwt>0</asrwt>
<pdfrwt beam="1">0</pdfrwt>
<pdfrwt beam="2">0</pdfrwt>
<totfact> 0.34515748E+11</totfact>
</mgrwt>
</event>
<event>
 4    1  0.1750553E+006  0.2192248E+01  0.7546771E-02  0.2862018E+00
         22   -1    0    0    0    0  0.00000000000E+00  0.00000000000E+00  0.13010823153E+01  0.13010823153E+01  0.00000000000E+00 0.  1.
         22   -1    0    0    0    0 -0.00000000000E+00 -0.00000000000E+00 -0.36982478434E+01  0.36982478434E+01  0.00000000000E+00 0.  1.
          4    1    1    2  501    0  0.87579766656E+00  0.15575717684E+01 -0.11119960981E+01  0.24581470031E+01  0.12700000000E+01 0.  1.
         -4    1    1    2    0  501 -0.87579766656E+00 -0.15575717684E+01 -0.12851694300E+01  0.25411831556E+01  0.12700000000E+01 0.  1.
<mgrwt>
<rscale>  0 0.21922480E+01</rscale>
<asrwt>0</asrwt>
<pdfrwt beam="1">0</pdfrwt>
<pdfrwt beam="2">0</pdfrwt>
<totfact> 0.38403719E+12</totfact>
</mgrwt>
</event>
<event>
 4    1  0.1750553E+006  0.3553450E+01  0.7546771E-02  0.2371753E+00
         22   -1    0    0    0    0  0.00000000000E+00  0.00000000000E+00  0.17493445939E+01  0.17493445939E+01  0.00000000000E+00 0.  1.
         22   -1    0    0    0    0 -0.00000000000E+00 -0.00000000000E+00 -0.10657119618E+02  0.10657119618E+02  0.00000000000E+00 0. -1.
          4    1    1    2  501    0  0.61246772330E+00  0.32617462864E+01 -0.93007150573E+00  0.36731510390E+01  0.12700000000E+01 0.  1.
         -4    1    1    2    0  501 -0.61246772330E+00 -0.32617462864E+01 -0.79777035185E+01  0.87333131730E+01  0.12700000000E+01 0. -1.
<mgrwt>
<rscale>  0 0.35534498E+01</rscale>
<asrwt>0</asrwt>
<pdfrwt beam="1">0</pdfrwt>
<pdfrwt beam="2">0</pdfrwt>
<totfact> 0.77307958E+11</totfact>
</mgrwt>
</event>
<event>
 4    1  0.1750553E+006  0.2409075E+01  0.7546771E-02  0.2750026E+00
         22   -1    0    0    0    0  0.00000000000E+00  0.00000000000E+00  0.67058442129E+00  0.67058442129E+00  0.00000000000E+00 0. -1.
         22   -1    0    0    0    0 -0.00000000000E+00 -0.00000000000E+00 -0.86549910795E+01  0.86549910795E+01  0.00000000000E+00 0.  1.
          4    1    1    2  501    0 -0.58369380122E+00  0.19621524600E+01 -0.40234989424E+01  0.46895825475E+01  0.12700000000E+01 0. -1.
         -4    1    1    2    0  501  0.58369380122E+00 -0.19621524600E+01 -0.39609077158E+01  0.46359929533E+01  0.12700000000E+01 0. -1.
<mgrwt>
<rscale>  0 0.24090747E+01</rscale>
<asrwt>0</asrwt>
<pdfrwt beam="1">0</pdfrwt>
<pdfrwt beam="2">0</pdfrwt>
<totfact> 0.29770882E+12</totfact>
</mgrwt>
</event>
<event>
 4    1  0.1750553E+006  0.2281879E+01  0.7546771E-02  0.2813273E+00
         22   -1    0    0    0    0  0.00000000000E+00  0.00000000000E+00  0.31162528624E+01  0.31162528624E+01  0.00000000000E+00 0. -1.
         22   -1    0    0    0    0 -0.00000000000E+00 -0.00000000000E+00 -0.26070915251E+01  0.26070915251E+01  0.00000000000E+00 0.  1.
          4    1    1    2  501    0 -0.18956022589E+01 -0.27613018295E-01  0.19694157067E+01  0.30142277002E+01  0.12700000000E+01 0. -1.
         -4    1    1    2    0  501  0.18956022589E+01  0.27613018295E-01 -0.14602543694E+01  0.27091166874E+01  0.12700000000E+01 0.  1.
<mgrwt>
<rscale>  0 0.22818787E+01</rscale>
<asrwt>0</asrwt>
<pdfrwt beam="1">0</pdfrwt>
<pdfrwt beam="2">0</pdfrwt>
<totfact> 0.21023314E+12</totfact>
</mgrwt>
</event>
<event>
 4    1  0.1750553E+006  0.2193638E+01  0.7546771E-02  0.2861233E+00
         22   -1    0    0    0    0  0.00000000000E+00  0.00000000000E+00  0.24657332339E+01  0.24657332339E+01  0.00000000000E+00 0. -1.
         22   -1    0    0    0    0 -0.00000000000E+00 -0.00000000000E+00 -0.56102883613E+01  0.56102883613E+01  0.00000000000E+00 0. -1.
          4    1    1    2  501    0  0.35527172497E-01  0.17882635627E+01  0.16886370587E+01  0.27683106519E+01  0.12700000000E+01 0. -1.
         -4    1    1    2    0  501 -0.35527172497E-01 -0.17882635627E+01 -0.48331921861E+01  0.53077109433E+01  0.12700000000E+01 0. -1.
<mgrwt>
<rscale>  0 0.21936382E+01</rscale>
<asrwt>0</asrwt>
<pdfrwt beam="1">0</pdfrwt>
<pdfrwt beam="2">0</pdfrwt>
<totfact> 0.11219693E+12</totfact>
</mgrwt>
</event>
<event>
 4    1  0.1750553E+006  0.3265122E+01  0.7546771E-02  0.2444503E+00
         22   -1    0    0    0    0  0.00000000000E+00  0.00000000000E+00  0.14193869036E+02  0.14193869036E+02  0.00000000000E+00 0.  1.
         22   -1    0    0    0    0 -0.00000000000E+00 -0.00000000000E+00 -0.89907964339E+00  0.89907964339E+00  0.00000000000E+00 0. -1.
          4    1    1    2  501    0 -0.27158165901E+01 -0.12932365586E+01  0.97089734499E+01  0.10243299566E+02  0.12700000000E+01 0.  1.
         -4    1    1    2    0  501  0.27158165901E+01  0.12932365586E+01  0.35858159424E+01  0.48496491131E+01  0.12700000000E+01 0. -1.
<mgrwt>
<rscale>  0 0.32651218E+01</rscale>
<asrwt>0</asrwt>
<pdfrwt beam="1">0</pdfrwt>
<pdfrwt beam="2">0</pdfrwt>
<totfact> 0.11690095E+12</totfact>
</mgrwt>
</event>
<event>
 4    1  0.1750553E+006  0.3248698E+01  0.7546771E-02  0.2448987E+00
         22   -1    0    0    0    0  0.00000000000E+00  0.00000000000E+00  0.98630727369E+01  0.98630727369E+01  0.00000000000E+00 0.  1.
         22   -1    0    0    0    0 -0.00000000000E+00 -0.00000000000E+00 -0.12187237255E+01  0.12187237255E+01  0.00000000000E+00 0. -1.
          4    1    1    2  501    0  0.29348588709E+01  0.57248746643E+00  0.62574203184E+01  0.70504856238E+01  0.12700000000E+01 0.  1.
         -4    1    1    2    0  501 -0.29348588709E+01 -0.57248746643E+00  0.23869286930E+01  0.40313108385E+01  0.12700000000E+01 0. -1.
<mgrwt>
<rscale>  0 0.32486980E+01</rscale>
<asrwt>0</asrwt>
<pdfrwt beam="1">0</pdfrwt>
<pdfrwt beam="2">0</pdfrwt>
<totfact> 0.12867811E+12</totfact>
</mgrwt>
</event>
<event>
 4    1  0.1750553E+006  0.3199381E+01  0.7546771E-02  0.2462696E+00
         22   -1    0    0    0    0  0.00000000000E+00  0.00000000000E+00  0.30048595547E+02  0.30048595547E+02  0.00000000000E+00 0. -1.
         22   -1    0    0    0    0 -0.00000000000E+00 -0.00000000000E+00 -0.22162542512E+01  0.22162542512E+01  0.00000000000E+00 0.  1.
          4    1    1    2  501    0  0.59240915513E+00 -0.28761414270E+01  0.28757080494E+02  0.28934507368E+02  0.12700000000E+01 0. -1.
         -4    1    1    2    0  501 -0.59240915513E+00  0.28761414270E+01 -0.92473919820E+00  0.33303424298E+01  0.12700000000E+01 0.  1.
<mgrwt>
<rscale>  0 0.31993809E+01</rscale>
<asrwt>0</asrwt>
<pdfrwt beam="1">0</pdfrwt>
<pdfrwt beam="2">0</pdfrwt>
<totfact> 0.16232206E+11</totfact>
</mgrwt>
</event>
<event>
 4    1  0.1750553E+006  0.3535140E+01  0.7546771E-02  0.2376064E+00
         22   -1    0    0    0    0  0.00000000000E+00  0.00000000000E+00  0.28429835100E+01  0.28429835100E+01  0.00000000000E+00 0.  1.
         22   -1    0    0    0    0 -0.00000000000E+00 -0.00000000000E+00 -0.44204921655E+01  0.44204921655E+01  0.00000000000E+00 0. -1.
          4    1    1    2  501    0 -0.69319222716E+00 -0.32254920381E+01 -0.10601318529E+01  0.36906766178E+01  0.12700000000E+01 0.  1.
         -4    1    1    2    0  501  0.69319222716E+00  0.32254920381E+01 -0.51737680252E+00  0.35727990578E+01  0.12700000000E+01 0. -1.
<mgrwt>
<rscale>  0 0.35351399E+01</rscale>
<asrwt>0</asrwt>
<pdfrwt beam="1">0</pdfrwt>
<pdfrwt beam="2">0</pdfrwt>
<totfact> 0.12605144E+12</totfact>
</mgrwt>
</event>
<event>
 4    1  0.1750553E+006  0.3233844E+01  0.7546771E-02  0.2453077E+00
         22   -1    0    0    0    0  0.00000000000E+00  0.00000000000E+00  0.42059138153E+01  0.42059138153E+01  0.00000000000E+00 0.  1.
         22   -1    0    0    0    0 -0.00000000000E+00 -0.00000000000E+00 -0.25372617240E+01  0.25372617240E+01  0.00000000000E+00 0. -1.
          4    1    1    2  501    0  0.29651620768E+01  0.22947972065E+00  0.13115056572E+01  0.34896696366E+01  0.12700000000E+01 0. -1.
         -4    1    1    2    0  501 -0.29651620768E+01 -0.22947972065E+00  0.35714643409E+00  0.32535059027E+01  0.12700000000E+01 0.  1.
<mgrwt>
<rscale>  0 0.32338440E+01</rscale>
<asrwt>0</asrwt>
<pdfrwt beam="1">0</pdfrwt>
<pdfrwt beam="2">0</pdfrwt>
<totfact> 0.15261438E+12</totfact>
</mgrwt>
</event>
<event>
 4    1  0.1750553E+006  0.2278657E+01  0.7546771E-02  0.2814962E+00
         22   -1    0    0    0    0  0.00000000000E+00  0.00000000000E+00  0.82333171133E+00  0.82333171133E+00  0.00000000000E+00 0. -1.
         22   -1    0    0    0    0 -0.00000000000E+00 -0.00000000000E+00 -0.70648510793E+01  0.70648510793E+01  0.00000000000E+00 0. -1.
          4    1    1    2  501    0  0.18237087553E+01 -0.50345107823E+00 -0.18284899798E+01  0.29215838544E+01  0.12700000000E+01 0. -1.
         -4    1    1    2    0  501 -0.18237087553E+01  0.50345107823E+00 -0.44130293882E+01  0.49665989362E+01  0.12700000000E+01 0. -1.
<mgrwt>
<rscale>  0 0.22786568E+01</rscale>
<asrwt>0</asrwt>
<pdfrwt beam="1">0</pdfrwt>
<pdfrwt beam="2">0</pdfrwt>
<totfact> 0.30086068E+12</totfact>
</mgrwt>
</event>
<event>
 4    1  0.1750553E+006  0.3584775E+01  0.7546771E-02  0.2364467E+00
         22   -1    0    0    0    0  0.00000000000E+00  0.00000000000E+00  0.75016533200E+01  0.75016533200E+01  0.00000000000E+00 0. -1.
         22   -1    0    0    0    0 -0.00000000000E+00 -0.00000000000E+00 -0.95112062378E+01  0.95112062378E+01  0.00000000000E+00 0.  1.
          4    1    1    2  501    0 -0.29945617575E+01  0.15067556992E+01  0.66976194537E+01  0.75966255142E+01  0.12700000000E+01 0. -1.
         -4    1    1    2    0  501  0.29945617575E+01 -0.15067556992E+01 -0.87071723715E+01  0.94162340436E+01  0.12700000000E+01 0.  1.
<mgrwt>
<rscale>  0 0.35847751E+01</rscale>
<asrwt>0</asrwt>
<pdfrwt beam="1">0</pdfrwt>
<pdfrwt beam="2">0</pdfrwt>
<totfact> 0.16045897E+11</totfact>
</mgrwt>
</event>
<event>
 4    1  0.1750553E+006  0.2365874E+01  0.7546771E-02  0.2770787E+00
         22   -1    0    0    0    0  0.00000000000E+00  0.00000000000E+00  0.22217609737E+00  0.22217609737E+00  0.00000000000E+00 0.  1.
         22   -1    0    0    0    0 -0.00000000000E+00 -0.00000000000E+00 -0.25196397806E+02  0.25196397806E+02  0.00000000000E+00 0.  1.
          4    1    1    2  501    0  0.64100648652E+00  0.18903886209E+01 -0.12627069358E+02  0.12846798785E+02  0.12700000000E+01 0.  1.
         -4    1    1    2    0  501 -0.64100648652E+00 -0.18903886209E+01 -0.12347152351E+02  0.12571775119E+02  0.12700000000E+01 0.  1.
<mgrwt>
<rscale>  0 0.23658737E+01</rscale>
<asrwt>0</asrwt>
<pdfrwt beam="1">0</pdfrwt>
<pdfrwt beam="2">0</pdfrwt>
<totfact> 0.27694428E+12</totfact>
</mgrwt>
</event>
<event>
 4    1  0.1750553E+006  0.2313021E+01  0.7546771E-02  0.2797180E+00
         22   -1    0    0    0    0  0.00000000000E+00  0.00000000000E+00  0.12766218691E+01  0.12766218691E+01  0.00000000000E+00 0. -1.
         22   -1    0    0    0    0 -0.00000000000E+00 -0.00000000000E+00 -0.52488514003E+01  0.52488514003E+01  0.00000000000E+00 0. -1.
          4    1    1    2  501    0  0.82235482389E-01  0.19314253713E+01 -0.52123051380E+00  0.23710225406E+01  0.12700000000E+01 0. -1.
         -4    1    1    2    0  501 -0.82235482389E-01 -0.19314253713E+01 -0.34509990174E+01  0.41544507288E+01  0.12700000000E+01 0. -1.
<mgrwt>
<rscale>  0 0.23130211E+01</rscale>
<asrwt>0</asrwt>
<pdfrwt beam="1">0</pdfrwt>
<pdfrwt beam="2">0</pdfrwt>
<totfact> 0.25966681E+12</totfact>
</mgrwt>
</event>
<event>
 4    1  0.1750553E+006  0.2025744E+01  0.7546771E-02  0.2963561E+00
         22   -1    0    0    0    0  0.00000000000E+00  0.00000000000E+00  0.14199335508E+01  0.14199335508E+01  0.00000000000E+00 0. -1.
         22   -1    0    0    0    0 -0.00000000000E+00 -0.00000000000E+00 -0.52202665941E+01  0.52202665941E+01  0.00000000000E+00 0. -1.
          4    1    1    2  501    0 -0.15776687612E+01 -0.41227885413E-01  0.31805868508E+00  0.20505608467E+01  0.12700000000E+01 0. -1.
         -4    1    1    2    0  501  0.15776687612E+01  0.41227885413E-01 -0.41183917284E+01  0.45896392982E+01  0.12700000000E+01 0. -1.
<mgrwt>
<rscale>  0 0.20257439E+01</rscale>
<asrwt>0</asrwt>
<pdfrwt beam="1">0</pdfrwt>
<pdfrwt beam="2">0</pdfrwt>
<totfact> 0.23128338E+12</totfact>
</mgrwt>
</event>
<event>
 4    1  0.1750553E+006  0.3756829E+01  0.7546771E-02  0.2326335E+00
         22   -1    0    0    0    0  0.00000000000E+00  0.00000000000E+00  0.10955208480E+01  0.10955208480E+01  0.00000000000E+00 0.  1.
         22   -1    0    0    0    0 -0.00000000000E+00 -0.00000000000E+00 -0.16129682474E+02  0.16129682474E+02  0.00000000000E+00 0. -1.
          4    1    1    2  501    0  0.35334354669E+01 -0.12528870056E+00 -0.36531345231E+01  0.52401484045E+01  0.12700000000E+01 0.  1.
         -4    1    1    2    0  501 -0.35334354669E+01  0.12528870056E+00 -0.11381027103E+02  0.11985054917E+02  0.12700000000E+01 0. -1.
<mgrwt>
<rscale>  0 0.37568289E+01</rscale>
<asrwt>0</asrwt>
<pdfrwt beam="1">0</pdfrwt>
<pdfrwt beam="2">0</pdfrwt>
<totfact> 0.79702140E+11</totfact>
</mgrwt>
</event>
<event>
 4    1  0.1750553E+006  0.2176310E+01  0.7546771E-02  0.2871088E+00
         22   -1    0    0    0    0  0.00000000000E+00  0.00000000000E+00  0.52539008725E+01  0.52539008725E+01  0.00000000000E+00 0. -1.
         22   -1    0    0    0    0 -0.00000000000E+00 -0.00000000000E+00 -0.98346545939E+00  0.98346545939E+00  0.00000000000E+00 0.  1.
          4    1    1    2  501    0  0.96458804388E+00 -0.14808761827E+01  0.30356292596E+01  0.37351531916E+01  0.12700000000E+01 0.  1.
         -4    1    1    2    0  501 -0.96458804388E+00  0.14808761827E+01  0.12348061536E+01  0.25022131403E+01  0.12700000000E+01 0.  1.
<mgrwt>
<rscale>  0 0.21763098E+01</rscale>
<asrwt>0</asrwt>
<pdfrwt beam="1">0</pdfrwt>
<pdfrwt beam="2">0</pdfrwt>
<totfact> 0.34959458E+12</totfact>
</mgrwt>
</event>
<event>
 4    1  0.1750553E+006  0.2032126E+01  0.7546771E-02  0.2959371E+00
         22   -1    0    0    0    0  0.00000000000E+00  0.00000000000E+00  0.95080532246E+00  0.95080532246E+00  0.00000000000E+00 0. -1.
         22   -1    0    0    0    0 -0.00000000000E+00 -0.00000000000E+00 -0.50228453270E+01  0.50228453270E+01  0.00000000000E+00 0. -1.
          4    1    1    2  501    0 -0.79702287139E-01  0.15843878342E+01 -0.93732732785E+00  0.22378828797E+01  0.12700000000E+01 0. -1.
         -4    1    1    2    0  501  0.79702287139E-01 -0.15843878342E+01 -0.31347126767E+01  0.37357677697E+01  0.12700000000E+01 0. -1.
<mgrwt>
<rscale>  0 0.20321263E+01</rscale>
<asrwt>0</asrwt>
<pdfrwt beam="1">0</pdfrwt>
<pdfrwt beam="2">0</pdfrwt>
<totfact> 0.38320519E+12</totfact>
</mgrwt>
</event>
<event>
 4    1  0.1750553E+006  0.9680801E+01  0.7546771E-02  0.1792268E+00
         22   -1    0    0    0    0  0.00000000000E+00  0.00000000000E+00  0.94709792090E+01  0.94709792090E+01  0.00000000000E+00 0. -1.
         22   -1    0    0    0    0 -0.00000000000E+00 -0.00000000000E+00 -0.13746749791E+02  0.13746749791E+02  0.00000000000E+00 0.  1.
          4    1    1    2  501    0  0.48483057339E+01 -0.82824471129E+01  0.40068549221E+01  0.10477250834E+02  0.12700000000E+01 0. -1.
         -4    1    1    2    0  501 -0.48483057339E+01  0.82824471129E+01 -0.82826255045E+01  0.12740478167E+02  0.12700000000E+01 0.  1.
<mgrwt>
<rscale>  0 0.96808005E+01</rscale>
<asrwt>0</asrwt>
<pdfrwt beam="1">0</pdfrwt>
<pdfrwt beam="2">0</pdfrwt>
<totfact> 0.77413339E+10</totfact>
</mgrwt>
</event>
<event>
 4    1  0.1750553E+006  0.2889134E+01  0.7546771E-02  0.2558419E+00
         22   -1    0    0    0    0  0.00000000000E+00  0.00000000000E+00  0.31271119751E+02  0.31271119751E+02  0.00000000000E+00 0. -1.
         22   -1    0    0    0    0 -0.00000000000E+00 -0.00000000000E+00 -0.37502484422E+00  0.37502484422E+00  0.00000000000E+00 0.  1.
          4    1    1    2  501    0 -0.16270265534E+01 -0.20216282715E+01  0.23943175820E+02  0.24116856442E+02  0.12700000000E+01 0. -1.
         -4    1    1    2    0  501  0.16270265534E+01  0.20216282715E+01  0.69529190865E+01  0.75292881534E+01  0.12700000000E+01 0.  1.
<mgrwt>
<rscale>  0 0.28891342E+01</rscale>
<asrwt>0</asrwt>
<pdfrwt beam="1">0</pdfrwt>
<pdfrwt beam="2">0</pdfrwt>
<totfact> 0.11708663E+12</totfact>
</mgrwt>
</event>
<event>
 4    1  0.1750553E+006  0.2099011E+01  0.7546771E-02  0.2916956E+00
         22   -1    0    0    0    0  0.00000000000E+00  0.00000000000E+00  0.22917664992E+02  0.22917664992E+02  0.00000000000E+00 0. -1.
         22   -1    0    0    0    0 -0.00000000000E+00 -0.00000000000E+00 -0.22329039825E+00  0.22329039825E+00  0.00000000000E+00 0.  1.
          4    1    1    2  501    0 -0.13166267621E+01 -0.10292913130E+01  0.15661410740E+02  0.15801444017E+02  0.12700000000E+01 0. -1.
         -4    1    1    2    0  501  0.13166267621E+01  0.10292913130E+01  0.70329638531E+01  0.73395113732E+01  0.12700000000E+01 0.  1.
<mgrwt>
<rscale>  0 0.20990109E+01</rscale>
<asrwt>0</asrwt>
<pdfrwt beam="1">0</pdfrwt>
<pdfrwt beam="2">0</pdfrwt>
<totfact> 0.31028436E+12</totfact>
</mgrwt>
</event>
<event>
 4    1  0.1750553E+006  0.2620093E+01  0.7546771E-02  0.2657841E+00
         22   -1    0    0    0    0  0.00000000000E+00  0.00000000000E+00  0.12867250895E+02  0.12867250895E+02  0.00000000000E+00 0.  1.
         22   -1    0    0    0    0 -0.00000000000E+00 -0.00000000000E+00 -0.75263562398E+00  0.75263562398E+00  0.00000000000E+00 0. -1.
          4    1    1    2  501    0  0.22066716316E+01  0.61853490973E+00  0.23828632709E+01  0.35415988610E+01  0.12700000000E+01 0. -1.
         -4    1    1    2    0  501 -0.22066716316E+01 -0.61853490973E+00  0.97317519997E+01  0.10078287658E+02  0.12700000000E+01 0.  1.
<mgrwt>
<rscale>  0 0.26200926E+01</rscale>
<asrwt>0</asrwt>
<pdfrwt beam="1">0</pdfrwt>
<pdfrwt beam="2">0</pdfrwt>
<totfact> 0.16139932E+12</totfact>
</mgrwt>
</event>
<event>
 4    1  0.1750553E+006  0.4958992E+01  0.7546771E-02  0.2127931E+00
         22   -1    0    0    0    0  0.00000000000E+00  0.00000000000E+00  0.10549755978E+01  0.10549755978E+01  0.00000000000E+00 0.  1.
         22   -1    0    0    0    0 -0.00000000000E+00 -0.00000000000E+00 -0.28532711328E+02  0.28532711328E+02  0.00000000000E+00 0. -1.
          4    1    1    2  501    0  0.91756383868E+00 -0.47049734414E+01 -0.74096086014E+01  0.89159350664E+01  0.12700000000E+01 0.  1.
         -4    1    1    2    0  501 -0.91756383868E+00  0.47049734414E+01 -0.20068127129E+02  0.20671751860E+02  0.12700000000E+01 0. -1.
<mgrwt>
<rscale>  0 0.49589917E+01</rscale>
<asrwt>0</asrwt>
<pdfrwt beam="1">0</pdfrwt>
<pdfrwt beam="2">0</pdfrwt>
<totfact> 0.40749070E+11</totfact>
</mgrwt>
</event>
<event>
 4    1  0.1750553E+006  0.2426996E+01  0.7546771E-02  0.2741617E+00
         22   -1    0    0    0    0  0.00000000000E+00  0.00000000000E+00  0.20062703217E+01  0.20062703217E+01  0.00000000000E+00 0. -1.
         22   -1    0    0    0    0 -0.00000000000E+00 -0.00000000000E+00 -0.40103249400E+01  0.40103249400E+01  0.00000000000E+00 0.  1.
          4    1    1    2  501    0  0.13144166268E+01 -0.15967839218E+01  0.55504540217E+00  0.24896556710E+01  0.12700000000E+01 0. -1.
         -4    1    1    2    0  501 -0.13144166268E+01  0.15967839218E+01 -0.25591000204E+01  0.35269395907E+01  0.12700000000E+01 0.  1.
<mgrwt>
<rscale>  0 0.24269961E+01</rscale>
<asrwt>0</asrwt>
<pdfrwt beam="1">0</pdfrwt>
<pdfrwt beam="2">0</pdfrwt>
<totfact> 0.21197274E+12</totfact>
</mgrwt>
</event>
<event>
 4    1  0.1750553E+006  0.2153497E+01  0.7546771E-02  0.2884294E+00
         22   -1    0    0    0    0  0.00000000000E+00  0.00000000000E+00  0.21638889388E+01  0.21638889388E+01  0.00000000000E+00 0. -1.
         22   -1    0    0    0    0 -0.00000000000E+00 -0.00000000000E+00 -0.28034131062E+01  0.28034131062E+01  0.00000000000E+00 0.  1.
          4    1    1    2  501    0 -0.50318904455E+00  0.16647678725E+01  0.88556137146E+00  0.23284695030E+01  0.12700000000E+01 0.  1.
         -4    1    1    2    0  501  0.50318904455E+00 -0.16647678725E+01 -0.15250855388E+01  0.26388325420E+01  0.12700000000E+01 0. -1.
<mgrwt>
<rscale>  0 0.21534975E+01</rscale>
<asrwt>0</asrwt>
<pdfrwt beam="1">0</pdfrwt>
<pdfrwt beam="2">0</pdfrwt>
<totfact> 0.29536786E+12</totfact>
</mgrwt>
</event>
<event>
 4    1  0.1750553E+006  0.2409970E+01  0.7546771E-02  0.2749603E+00
         22   -1    0    0    0    0  0.00000000000E+00  0.00000000000E+00  0.69001691879E+02  0.69001691879E+02  0.00000000000E+00 0. -1.
         22   -1    0    0    0    0 -0.00000000000E+00 -0.00000000000E+00 -0.90553164904E-01  0.90553164904E-01  0.00000000000E+00 0.  1.
          4    1    1    2  501    0 -0.20435419923E+01  0.13781590836E+00  0.43626718694E+02  0.43693232211E+02  0.12700000000E+01 0. -1.
         -4    1    1    2    0  501  0.20435419923E+01 -0.13781590836E+00  0.25284420020E+02  0.25399012832E+02  0.12700000000E+01 0.  1.
<mgrwt>
<rscale>  0 0.24099704E+01</rscale>
<asrwt>0</asrwt>
<pdfrwt beam="1">0</pdfrwt>
<pdfrwt beam="2">0</pdfrwt>
<totfact> 0.20188081E+12</totfact>
</mgrwt>
</event>
<event>
 4    1  0.1750553E+006  0.2216028E+01  0.7546771E-02  0.2848719E+00
         22   -1    0    0    0    0  0.00000000000E+00  0.00000000000E+00  0.69077018552E+00  0.69077018552E+00  0.00000000000E+00 0.  1.
         22   -1    0    0    0    0 -0.00000000000E+00 -0.00000000000E+00 -0.11661718093E+02  0.11661718093E+02  0.00000000000E+00 0.  1.
          4    1    1    2  501    0  0.15823271692E+01  0.89113453196E+00 -0.16264984568E+01  0.27488683589E+01  0.12700000000E+01 0.  1.
         -4    1    1    2    0  501 -0.15823271692E+01 -0.89113453196E+00 -0.93444494511E+01  0.96036199200E+01  0.12700000000E+01 0.  1.
<mgrwt>
<rscale>  0 0.22160280E+01</rscale>
<asrwt>0</asrwt>
<pdfrwt beam="1">0</pdfrwt>
<pdfrwt beam="2">0</pdfrwt>
<totfact> 0.20059629E+12</totfact>
</mgrwt>
</event>
<event>
 4    1  0.1750553E+006  0.2889050E+01  0.7546771E-02  0.2558448E+00
         22   -1    0    0    0    0  0.00000000000E+00  0.00000000000E+00  0.83824890727E+01  0.83824890727E+01  0.00000000000E+00 0. -1.
         22   -1    0    0    0    0 -0.00000000000E+00 -0.00000000000E+00 -0.16220952341E+01  0.16220952341E+01  0.00000000000E+00 0.  1.
          4    1    1    2  501    0  0.20335983113E+00  0.25869580281E+01  0.64886790319E+01  0.71027855549E+01  0.12700000000E+01 0. -1.
         -4    1    1    2    0  501 -0.20335983113E+00 -0.25869580281E+01  0.27171480662E+00  0.29017987519E+01  0.12700000000E+01 0.  1.
<mgrwt>
<rscale>  0 0.28890495E+01</rscale>
<asrwt>0</asrwt>
<pdfrwt beam="1">0</pdfrwt>
<pdfrwt beam="2">0</pdfrwt>
<totfact> 0.11273276E+12</totfact>
</mgrwt>
</event>
<event>
 4    1  0.1750553E+006  0.2432570E+01  0.7546771E-02  0.2739025E+00
         22   -1    0    0    0    0  0.00000000000E+00  0.00000000000E+00  0.89400066962E+00  0.89400066962E+00  0.00000000000E+00 0. -1.
         22   -1    0    0    0    0 -0.00000000000E+00 -0.00000000000E+00 -0.30257070934E+02  0.30257070934E+02  0.00000000000E+00 0. -1.
          4    1    1    2  501    0 -0.20665852159E+01 -0.18363941966E+00 -0.91465621090E+00  0.25988447194E+01  0.12700000000E+01 0. -1.
         -4    1    1    2    0  501  0.20665852159E+01  0.18363941966E+00 -0.28448414053E+02  0.28552226884E+02  0.12700000000E+01 0. -1.
<mgrwt>
<rscale>  0 0.24325702E+01</rscale>
<asrwt>0</asrwt>
<pdfrwt beam="1">0</pdfrwt>
<pdfrwt beam="2">0</pdfrwt>
<totfact> 0.45680641E+11</totfact>
</mgrwt>
</event>
<event>
 4    1  0.1750553E+006  0.2299045E+01  0.7546771E-02  0.2804351E+00
         22   -1    0    0    0    0  0.00000000000E+00  0.00000000000E+00  0.15799974499E+01  0.15799974499E+01  0.00000000000E+00 0.  1.
         22   -1    0    0    0    0 -0.00000000000E+00 -0.00000000000E+00 -0.16279922280E+02  0.16279922280E+02  0.00000000000E+00 0.  1.
          4    1    1    2  501    0  0.23140514331E+00  0.19024089256E+01  0.60979379127E+00  0.23785408402E+01  0.12700000000E+01 0.  1.
         -4    1    1    2    0  501 -0.23140514331E+00 -0.19024089256E+01 -0.15309718622E+02  0.15481378890E+02  0.12700000000E+01 0.  1.
<mgrwt>
<rscale>  0 0.22990450E+01</rscale>
<asrwt>0</asrwt>
<pdfrwt beam="1">0</pdfrwt>
<pdfrwt beam="2">0</pdfrwt>
<totfact> 0.51753651E+11</totfact>
</mgrwt>
</event>
<event>
 4    1  0.1750553E+006  0.2034940E+01  0.7546771E-02  0.2957532E+00
         22   -1    0    0    0    0  0.00000000000E+00  0.00000000000E+00  0.31674989381E+01  0.31674989381E+01  0.00000000000E+00 0.  1.
         22   -1    0    0    0    0 -0.00000000000E+00 -0.00000000000E+00 -0.15923581480E+01  0.15923581480E+01  0.00000000000E+00 0. -1.
          4    1    1    2  501    0  0.15606655042E+01  0.30397967617E+00  0.17944650398E+01  0.27131319980E+01  0.12700000000E+01 0.  1.
         -4    1    1    2    0  501 -0.15606655042E+01 -0.30397967617E+00 -0.21932424970E+00  0.20467250881E+01  0.12700000000E+01 0. -1.
<mgrwt>
<rscale>  0 0.20349399E+01</rscale>
<asrwt>0</asrwt>
<pdfrwt beam="1">0</pdfrwt>
<pdfrwt beam="2">0</pdfrwt>
<totfact> 0.36503695E+12</totfact>
</mgrwt>
</event>
<event>
 4    1  0.1750553E+006  0.4184042E+01  0.7546771E-02  0.2243437E+00
         22   -1    0    0    0    0  0.00000000000E+00  0.00000000000E+00  0.51613929465E+02  0.51613929465E+02  0.00000000000E+00 0.  1.
         22   -1    0    0    0    0 -0.00000000000E+00 -0.00000000000E+00 -0.48829001901E+00  0.48829001901E+00  0.00000000000E+00 0. -1.
          4    1    1    2  501    0  0.78549894121E+00 -0.39084901114E+01  0.39958978111E+02  0.40177433158E+02  0.12700000000E+01 0.  1.
         -4    1    1    2    0  501 -0.78549894121E+00  0.39084901114E+01  0.11166661335E+02  0.11924786326E+02  0.12700000000E+01 0.  1.
<mgrwt>
<rscale>  0 0.41840415E+01</rscale>
<asrwt>0</asrwt>
<pdfrwt beam="1">0</pdfrwt>
<pdfrwt beam="2">0</pdfrwt>
<totfact> 0.45366230E+11</totfact>
</mgrwt>
</event>
<event>
 4    1  0.1750553E+006  0.3499759E+01  0.7546771E-02  0.2384504E+00
         22   -1    0    0    0    0  0.00000000000E+00  0.00000000000E+00  0.11423435205E+02  0.11423435205E+02  0.00000000000E+00 0.  1.
         22   -1    0    0    0    0 -0.00000000000E+00 -0.00000000000E+00 -0.29013637789E+01  0.29013637789E+01  0.00000000000E+00 0. -1.
          4    1    1    2  501    0 -0.19768917873E+01 -0.25937065347E+01  0.99480278468E+01  0.10545689772E+02  0.12700000000E+01 0.  1.
         -4    1    1    2    0  501  0.19768917873E+01  0.25937065347E+01 -0.14259564202E+01  0.37791092124E+01  0.12700000000E+01 0. -1.
<mgrwt>
<rscale>  0 0.34997592E+01</rscale>
<asrwt>0</asrwt>
<pdfrwt beam="1">0</pdfrwt>
<pdfrwt beam="2">0</pdfrwt>
<totfact> 0.39497447E+11</totfact>
</mgrwt>
</event>
<event>
 4    1  0.1750553E+006  0.2107520E+01  0.7546771E-02  0.2911747E+00
         22   -1    0    0    0    0  0.00000000000E+00  0.00000000000E+00  0.50395638762E+00  0.50395638762E+00  0.00000000000E+00 0. -1.
         22   -1    0    0    0    0 -0.00000000000E+00 -0.00000000000E+00 -0.15870804803E+02  0.15870804803E+02  0.00000000000E+00 0.  1.
          4    1    1    2  501    0  0.20149368807E+00  0.16697733227E+01 -0.22237901367E+01  0.30638024133E+01  0.12700000000E+01 0. -1.
         -4    1    1    2    0  501 -0.20149368807E+00 -0.16697733227E+01 -0.13143058279E+02  0.13310958778E+02  0.12700000000E+01 0.  1.
<mgrwt>
<rscale>  0 0.21075205E+01</rscale>
<asrwt>0</asrwt>
<pdfrwt beam="1">0</pdfrwt>
<pdfrwt beam="2">0</pdfrwt>
<totfact> 0.19647433E+12</totfact>
</mgrwt>
</event>
<event>
 4    1  0.1750553E+006  0.2141350E+01  0.7546771E-02  0.2891436E+00
         22   -1    0    0    0    0  0.00000000000E+00  0.00000000000E+00  0.33101394251E+01  0.33101394251E+01  0.00000000000E+00 0. -1.
         22   -1    0    0    0    0 -0.00000000000E+00 -0.00000000000E+00 -0.45842534299E+01  0.45842534299E+01  0.00000000000E+00 0.  1.
          4    1    1    2  501    0 -0.10830159088E+01  0.13414756794E+01  0.26602666759E+01  0.34150255115E+01  0.12700000000E+01 0. -1.
         -4    1    1    2    0  501  0.10830159088E+01 -0.13414756794E+01 -0.39343806807E+01  0.44793673435E+01  0.12700000000E+01 0.  1.
<mgrwt>
<rscale>  0 0.21413501E+01</rscale>
<asrwt>0</asrwt>
<pdfrwt beam="1">0</pdfrwt>
<pdfrwt beam="2">0</pdfrwt>
<totfact> 0.10107303E+12</totfact>
</mgrwt>
</event>
<event>
 4    1  0.1750553E+006  0.3459037E+01  0.7546771E-02  0.2394405E+00
         22   -1    0    0    0    0  0.00000000000E+00  0.00000000000E+00  0.24055056011E+01  0.24055056011E+01  0.00000000000E+00 0.  1.
         22   -1    0    0    0    0 -0.00000000000E+00 -0.00000000000E+00 -0.71221881129E+01  0.71221881129E+01  0.00000000000E+00 0.  1.
          4    1    1    2  501    0 -0.32171833390E+01 -0.42027034596E-01  0.25796949197E+00  0.34686428423E+01  0.12700000000E+01 0.  1.
         -4    1    1    2    0  501  0.32171833390E+01  0.42027034596E-01 -0.49746520037E+01  0.60590508717E+01  0.12700000000E+01 0.  1.
<mgrwt>
<rscale>  0 0.34590367E+01</rscale>
<asrwt>0</asrwt>
<pdfrwt beam="1">0</pdfrwt>
<pdfrwt beam="2">0</pdfrwt>
<totfact> 0.86883419E+11</totfact>
</mgrwt>
</event>
<event>
 4    1  0.1750553E+006  0.2343340E+01  0.7546771E-02  0.2781903E+00
         22   -1    0    0    0    0  0.00000000000E+00  0.00000000000E+00  0.47948741741E+00  0.47948741741E+00  0.00000000000E+00 0.  1.
         22   -1    0    0    0    0 -0.00000000000E+00 -0.00000000000E+00 -0.12707268942E+02  0.12707268942E+02  0.00000000000E+00 0. -1.
          4    1    1    2  501    0 -0.17410244430E+01 -0.92042086813E+00 -0.40418616072E+01  0.46720323134E+01  0.12700000000E+01 0. -1.
         -4    1    1    2    0  501  0.17410244430E+01  0.92042086813E+00 -0.81859199170E+01  0.85147240456E+01  0.12700000000E+01 0.  1.
<mgrwt>
<rscale>  0 0.23433396E+01</rscale>
<asrwt>0</asrwt>
<pdfrwt beam="1">0</pdfrwt>
<pdfrwt beam="2">0</pdfrwt>
<totfact> 0.27306715E+12</totfact>
</mgrwt>
</event>
<event>
 4    1  0.1750553E+006  0.2971174E+01  0.7546771E-02  0.2531369E+00
         22   -1    0    0    0    0  0.00000000000E+00  0.00000000000E+00  0.13777034532E+01  0.13777034532E+01  0.00000000000E+00 0.  1.
         22   -1    0    0    0    0 -0.00000000000E+00 -0.00000000000E+00 -0.12144449496E+02  0.12144449496E+02  0.00000000000E+00 0. -1.
          4    1    1    2  501    0 -0.13637405294E+00 -0.26826060221E+01 -0.73649894258E+00  0.30610951708E+01  0.12700000000E+01 0.  1.
         -4    1    1    2    0  501  0.13637405294E+00  0.26826060221E+01 -0.10030247100E+02  0.10461057778E+02  0.12700000000E+01 0. -1.
<mgrwt>
<rscale>  0 0.29711737E+01</rscale>
<asrwt>0</asrwt>
<pdfrwt beam="1">0</pdfrwt>
<pdfrwt beam="2">0</pdfrwt>
<totfact> 0.86817620E+11</totfact>
</mgrwt>
</event>
<event>
 4    1  0.1750553E+006  0.2609600E+01  0.7546771E-02  0.2662098E+00
         22   -1    0    0    0    0  0.00000000000E+00  0.00000000000E+00  0.14702710434E+00  0.14702710434E+00  0.00000000000E+00 0.  1.
         22   -1    0    0    0    0 -0.00000000000E+00 -0.00000000000E+00 -0.47348400116E+02  0.47348400116E+02  0.00000000000E+00 0. -1.
          4    1    1    2  501    0 -0.26597418475E+00 -0.22641491244E+01 -0.20097568675E+02  0.20266284320E+02  0.12700000000E+01 0.  1.
         -4    1    1    2    0  501  0.26597418475E+00  0.22641491244E+01 -0.27103804337E+02  0.27229142900E+02  0.12700000000E+01 0.  1.
<mgrwt>
<rscale>  0 0.26096003E+01</rscale>
<asrwt>0</asrwt>
<pdfrwt beam="1">0</pdfrwt>
<pdfrwt beam="2">0</pdfrwt>
<totfact> 0.19490282E+12</totfact>
</mgrwt>
</event>
<event>
 4    1  0.1750553E+006  0.2383208E+01  0.7546771E-02  0.2762372E+00
         22   -1    0    0    0    0  0.00000000000E+00  0.00000000000E+00  0.20459926255E+02  0.20459926255E+02  0.00000000000E+00 0.  1.
         22   -1    0    0    0    0 -0.00000000000E+00 -0.00000000000E+00 -0.27800960769E+00  0.27800960769E+00  0.00000000000E+00 0. -1.
          4    1    1    2  501    0  0.74158538431E+00 -0.18753216555E+01  0.96930630618E+01  0.99817409160E+01  0.12700000000E+01 0.  1.
         -4    1    1    2    0  501 -0.74158538431E+00  0.18753216555E+01  0.10488853586E+02  0.10756194947E+02  0.12700000000E+01 0. -1.
<mgrwt>
<rscale>  0 0.23832080E+01</rscale>
<asrwt>0</asrwt>
<pdfrwt beam="1">0</pdfrwt>
<pdfrwt beam="2">0</pdfrwt>
<totfact> 0.27988958E+12</totfact>
</mgrwt>
</event>
<event>
 4    1  0.1750553E+006  0.4506233E+01  0.7546771E-02  0.2189848E+00
         22   -1    0    0    0    0  0.00000000000E+00  0.00000000000E+00  0.97993552516E+01  0.97993552516E+01  0.00000000000E+00 0. -1.
         22   -1    0    0    0    0 -0.00000000000E+00 -0.00000000000E+00 -0.61857789253E+01  0.61857789253E+01  0.00000000000E+00 0.  1.
          4    1    1    2  501    0 -0.37398670197E+01  0.21694775730E+01  0.83245647793E+01  0.94659662492E+01  0.12700000000E+01 0. -1.
         -4    1    1    2    0  501  0.37398670197E+01 -0.21694775730E+01 -0.47109884531E+01  0.65191679277E+01  0.12700000000E+01 0.  1.
<mgrwt>
<rscale>  0 0.45062333E+01</rscale>
<asrwt>0</asrwt>
<pdfrwt beam="1">0</pdfrwt>
<pdfrwt beam="2">0</pdfrwt>
<totfact> 0.19489298E+11</totfact>
</mgrwt>
</event>
<event>
 4    1  0.1750553E+006  0.2323197E+01  0.7546771E-02  0.2792011E+00
         22   -1    0    0    0    0  0.00000000000E+00  0.00000000000E+00  0.86251275537E+00  0.86251275537E+00  0.00000000000E+00 0.  1.
         22   -1    0    0    0    0 -0.00000000000E+00 -0.00000000000E+00 -0.77220489181E+01  0.77220489181E+01  0.00000000000E+00 0. -1.
          4    1    1    2  501    0 -0.10615905371E+01 -0.16301444349E+01 -0.15605436160E+01  0.27986678482E+01  0.12700000000E+01 0.  1.
         -4    1    1    2    0  501  0.10615905371E+01  0.16301444349E+01 -0.52989925467E+01  0.57858938253E+01  0.12700000000E+01 0. -1.
<mgrwt>
<rscale>  0 0.23231972E+01</rscale>
<asrwt>0</asrwt>
<pdfrwt beam="1">0</pdfrwt>
<pdfrwt beam="2">0</pdfrwt>
<totfact> 0.25650263E+12</totfact>
</mgrwt>
</event>
<event>
 4    1  0.1750553E+006  0.2099106E+01  0.7546771E-02  0.2916897E+00
         22   -1    0    0    0    0  0.00000000000E+00  0.00000000000E+00  0.38893561117E+00  0.38893561117E+00  0.00000000000E+00 0.  1.
         22   -1    0    0    0    0 -0.00000000000E+00 -0.00000000000E+00 -0.11514229585E+02  0.11514229585E+02  0.00000000000E+00 0.  1.
          4    1    1    2  501    0 -0.98071766292E+00 -0.13533428622E+01 -0.63175528714E+01  0.66571554225E+01  0.12700000000E+01 0.  1.
         -4    1    1    2    0  501  0.98071766292E+00  0.13533428622E+01 -0.48077411024E+01  0.52460097736E+01  0.12700000000E+01 0.  1.
<mgrwt>
<rscale>  0 0.20991055E+01</rscale>
<asrwt>0</asrwt>
<pdfrwt beam="1">0</pdfrwt>
<pdfrwt beam="2">0</pdfrwt>
<totfact> 0.38985532E+12</totfact>
</mgrwt>
</event>
<event>
 4    1  0.1750553E+006  0.2406756E+01  0.7546771E-02  0.2751122E+00
         22   -1    0    0    0    0  0.00000000000E+00  0.00000000000E+00  0.30519921444E+01  0.30519921444E+01  0.00000000000E+00 0. -1.
         22   -1    0    0    0    0 -0.00000000000E+00 -0.00000000000E+00 -0.19285038382E+01  0.19285038382E+01  0.00000000000E+00 0.  1.
          4    1    1    2  501    0 -0.10683550286E+01 -0.17430415247E+01  0.87527978842E+00  0.25609746059E+01  0.12700000000E+01 0. -1.
         -4    1    1    2    0  501  0.10683550286E+01  0.17430415247E+01  0.24820851779E+00  0.24195213767E+01  0.12700000000E+01 0.  1.
<mgrwt>
<rscale>  0 0.24067564E+01</rscale>
<asrwt>0</asrwt>
<pdfrwt beam="1">0</pdfrwt>
<pdfrwt beam="2">0</pdfrwt>
<totfact> 0.30564737E+12</totfact>
</mgrwt>
</event>
<event>
 4    1  0.1750553E+006  0.3742235E+01  0.7546771E-02  0.2329452E+00
         22   -1    0    0    0    0  0.00000000000E+00  0.00000000000E+00  0.49764264350E+01  0.49764264350E+01  0.00000000000E+00 0. -1.
         22   -1    0    0    0    0 -0.00000000000E+00 -0.00000000000E+00 -0.41766675435E+01  0.41766675435E+01  0.00000000000E+00 0.  1.
          4    1    1    2  501    0 -0.28013039046E+01  0.21316931839E+01  0.30138274205E+01  0.48049427797E+01  0.12700000000E+01 0. -1.
         -4    1    1    2    0  501  0.28013039046E+01 -0.21316931839E+01 -0.22140685290E+01  0.43481511987E+01  0.12700000000E+01 0.  1.
<mgrwt>
<rscale>  0 0.37422345E+01</rscale>
<asrwt>0</asrwt>
<pdfrwt beam="1">0</pdfrwt>
<pdfrwt beam="2">0</pdfrwt>
<totfact> 0.69808972E+11</totfact>
</mgrwt>
</event>
<event>
 4    1  0.1750553E+006  0.3294187E+01  0.7546771E-02  0.2436664E+00
         22   -1    0    0    0    0  0.00000000000E+00  0.00000000000E+00  0.11234061767E+02  0.11234061767E+02  0.00000000000E+00 0.  1.
         22   -1    0    0    0    0 -0.00000000000E+00 -0.00000000000E+00 -0.14171138813E+01  0.14171138813E+01  0.00000000000E+00 0. -1.
          4    1    1    2  501    0 -0.21569263931E+01  0.21415973415E+01  0.84775858314E+01  0.90951158413E+01  0.12700000000E+01 0.  1.
         -4    1    1    2    0  501  0.21569263931E+01 -0.21415973415E+01  0.13393620541E+01  0.35560598069E+01  0.12700000000E+01 0. -1.
<mgrwt>
<rscale>  0 0.32941874E+01</rscale>
<asrwt>0</asrwt>
<pdfrwt beam="1">0</pdfrwt>
<pdfrwt beam="2">0</pdfrwt>
<totfact> 0.92417717E+11</totfact>
</mgrwt>
</event>
<event>
 4    1  0.1750553E+006  0.2147957E+01  0.7546771E-02  0.2887542E+00
         22   -1    0    0    0    0  0.00000000000E+00  0.00000000000E+00  0.29536267897E+00  0.29536267897E+00  0.00000000000E+00 0.  1.
         22   -1    0    0    0    0 -0.00000000000E+00 -0.00000000000E+00 -0.18039037537E+02  0.18039037537E+02  0.00000000000E+00 0. -1.
          4    1    1    2  501    0  0.14061328099E+01 -0.10117356794E+01 -0.55151981522E+01  0.59187100979E+01  0.12700000000E+01 0.  1.
         -4    1    1    2    0  501 -0.14061328099E+01  0.10117356794E+01 -0.12228476705E+02  0.12415690118E+02  0.12700000000E+01 0. -1.
<mgrwt>
<rscale>  0 0.21479568E+01</rscale>
<asrwt>0</asrwt>
<pdfrwt beam="1">0</pdfrwt>
<pdfrwt beam="2">0</pdfrwt>
<totfact> 0.30589227E+12</totfact>
</mgrwt>
</event>
<event>
 4    1  0.1750553E+006  0.2173562E+01  0.7546771E-02  0.2872664E+00
         22   -1    0    0    0    0  0.00000000000E+00  0.00000000000E+00  0.38390321862E+02  0.38390321862E+02  0.00000000000E+00 0. -1.
         22   -1    0    0    0    0 -0.00000000000E+00 -0.00000000000E+00 -0.20407007939E+00  0.20407007939E+00  0.00000000000E+00 0.  1.
          4    1    1    2  501    0 -0.15179615080E+01 -0.89847819202E+00  0.31251348090E+02  0.31326843564E+02  0.12700000000E+01 0. -1.
         -4    1    1    2    0  501  0.15179615080E+01  0.89847819202E+00  0.69349036926E+01  0.72675483780E+01  0.12700000000E+01 0.  1.
<mgrwt>
<rscale>  0 0.21735616E+01</rscale>
<asrwt>0</asrwt>
<pdfrwt beam="1">0</pdfrwt>
<pdfrwt beam="2">0</pdfrwt>
<totfact> 0.17781397E+12</totfact>
</mgrwt>
</event>
<event>
 4    1  0.1750553E+006  0.2433410E+01  0.7546771E-02  0.2738636E+00
         22   -1    0    0    0    0  0.00000000000E+00  0.00000000000E+00  0.34800890256E+01  0.34800890256E+01  0.00000000000E+00 0. -1.
         22   -1    0    0    0    0 -0.00000000000E+00 -0.00000000000E+00 -0.74532377293E+01  0.74532377293E+01  0.00000000000E+00 0.  1.
          4    1    1    2  501    0  0.20022785763E+01 -0.54723507807E+00  0.28157129987E+01  0.37215219224E+01  0.12700000000E+01 0. -1.
         -4    1    1    2    0  501 -0.20022785763E+01  0.54723507807E+00 -0.67888617024E+01  0.72118048325E+01  0.12700000000E+01 0.  1.
<mgrwt>
<rscale>  0 0.24334103E+01</rscale>
<asrwt>0</asrwt>
<pdfrwt beam="1">0</pdfrwt>
<pdfrwt beam="2">0</pdfrwt>
<totfact> 0.53466932E+11</totfact>
</mgrwt>
</event>
<event>
 4    1  0.1750553E+006  0.2506341E+01  0.7546771E-02  0.2705741E+00
         22   -1    0    0    0    0  0.00000000000E+00  0.00000000000E+00  0.68084776481E+01  0.68084776481E+01  0.00000000000E+00 0. -1.
         22   -1    0    0    0    0 -0.00000000000E+00 -0.00000000000E+00 -0.15396218847E+02  0.15396218847E+02  0.00000000000E+00 0.  1.
          4    1    1    2  501    0  0.66836061928E-01  0.21597171355E+01  0.64706783438E+01  0.69391226674E+01  0.12700000000E+01 0. -1.
         -4    1    1    2    0  501 -0.66836061928E-01 -0.21597171355E+01 -0.15058419542E+02  0.15265573827E+02  0.12700000000E+01 0.  1.
<mgrwt>
<rscale>  0 0.25063410E+01</rscale>
<asrwt>0</asrwt>
<pdfrwt beam="1">0</pdfrwt>
<pdfrwt beam="2">0</pdfrwt>
<totfact> 0.10013028E+11</totfact>
</mgrwt>
</event>
<event>
 4    1  0.1750553E+006  0.2110826E+01  0.7546771E-02  0.2909735E+00
         22   -1    0    0    0    0  0.00000000000E+00  0.00000000000E+00  0.13828058936E+01  0.13828058936E+01  0.00000000000E+00 0.  1.
         22   -1    0    0    0    0 -0.00000000000E+00 -0.00000000000E+00 -0.56486415648E+01  0.56486415648E+01  0.00000000000E+00 0.  1.
          4    1    1    2  501    0 -0.16134214829E+01  0.48944428216E+00  0.17135362202E+00  0.21177692628E+01  0.12700000000E+01 0.  1.
         -4    1    1    2    0  501  0.16134214829E+01 -0.48944428216E+00 -0.44371892932E+01  0.49136781956E+01  0.12700000000E+01 0.  1.
<mgrwt>
<rscale>  0 0.21108256E+01</rscale>
<asrwt>0</asrwt>
<pdfrwt beam="1">0</pdfrwt>
<pdfrwt beam="2">0</pdfrwt>
<totfact> 0.21713386E+12</totfact>
</mgrwt>
</event>
<event>
 4    1  0.1750553E+006  0.2342488E+01  0.7546771E-02  0.2782327E+00
         22   -1    0    0    0    0  0.00000000000E+00  0.00000000000E+00  0.71231362784E+01  0.71231362784E+01  0.00000000000E+00 0. -1.
         22   -1    0    0    0    0 -0.00000000000E+00 -0.00000000000E+00 -0.80541009731E+00  0.80541009731E+00  0.00000000000E+00 0.  1.
          4    1    1    2  501    0  0.10514555684E+00 -0.19655269423E+01  0.23316630801E+01  0.33051330485E+01  0.12700000000E+01 0.  1.
         -4    1    1    2    0  501 -0.10514555684E+00  0.19655269423E+01  0.39860631010E+01  0.46234133272E+01  0.12700000000E+01 0. -1.
<mgrwt>
<rscale>  0 0.23424884E+01</rscale>
<asrwt>0</asrwt>
<pdfrwt beam="1">0</pdfrwt>
<pdfrwt beam="2">0</pdfrwt>
<totfact> 0.30547490E+12</totfact>
</mgrwt>
</event>
<event>
 4    1  0.1750553E+006  0.2009947E+01  0.7546771E-02  0.2974045E+00
         22   -1    0    0    0    0  0.00000000000E+00  0.00000000000E+00  0.49527256986E+01  0.49527256986E+01  0.00000000000E+00 0. -1.
         22   -1    0    0    0    0 -0.00000000000E+00 -0.00000000000E+00 -0.40598014498E+01  0.40598014498E+01  0.00000000000E+00 0.  1.
          4    1    1    2  501    0  0.13175325636E+01  0.83132061737E+00  0.44746722227E+01  0.49053621197E+01  0.12700000000E+01 0. -1.
         -4    1    1    2    0  501 -0.13175325636E+01 -0.83132061737E+00 -0.35817479739E+01  0.41071650288E+01  0.12700000000E+01 0.  1.
<mgrwt>
<rscale>  0 0.20099468E+01</rscale>
<asrwt>0</asrwt>
<pdfrwt beam="1">0</pdfrwt>
<pdfrwt beam="2">0</pdfrwt>
<totfact> 0.72581171E+11</totfact>
</mgrwt>
</event>
<event>
 4    1  0.1750553E+006  0.2081623E+01  0.7546771E-02  0.2927727E+00
         22   -1    0    0    0    0  0.00000000000E+00  0.00000000000E+00  0.19487137090E+01  0.19487137090E+01  0.00000000000E+00 0.  1.
         22   -1    0    0    0    0 -0.00000000000E+00 -0.00000000000E+00 -0.33821187282E+01  0.33821187282E+01  0.00000000000E+00 0. -1.
          4    1    1    2  501    0  0.16260547105E+01  0.27604065079E+00  0.84329123345E+00  0.22459502370E+01  0.12700000000E+01 0.  1.
         -4    1    1    2    0  501 -0.16260547105E+01 -0.27604065079E+00 -0.22766962527E+01  0.30848822002E+01  0.12700000000E+01 0. -1.
<mgrwt>
<rscale>  0 0.20816225E+01</rscale>
<asrwt>0</asrwt>
<pdfrwt beam="1">0</pdfrwt>
<pdfrwt beam="2">0</pdfrwt>
<totfact> 0.26777049E+12</totfact>
</mgrwt>
</event>
<event>
 4    1  0.1750553E+006  0.2195389E+01  0.7546771E-02  0.2860245E+00
         22   -1    0    0    0    0  0.00000000000E+00  0.00000000000E+00  0.40098646010E+00  0.40098646010E+00  0.00000000000E+00 0. -1.
         22   -1    0    0    0    0 -0.00000000000E+00 -0.00000000000E+00 -0.27394110297E+02  0.27394110297E+02  0.00000000000E+00 0.  1.
          4    1    1    2  501    0 -0.16579544962E+01  0.67677266778E+00 -0.30851670158E+01  0.37865538252E+01  0.12700000000E+01 0. -1.
         -4    1    1    2    0  501  0.16579544962E+01 -0.67677266778E+00 -0.23907956821E+02  0.24008542932E+02  0.12700000000E+01 0.  1.
<mgrwt>
<rscale>  0 0.21953893E+01</rscale>
<asrwt>0</asrwt>
<pdfrwt beam="1">0</pdfrwt>
<pdfrwt beam="2">0</pdfrwt>
<totfact> 0.12850702E+12</totfact>
</mgrwt>
</event>
<event>
 4    1  0.1750553E+006  0.6414538E+01  0.7546771E-02  0.1984392E+00
         22   -1    0    0    0    0  0.00000000000E+00  0.00000000000E+00  0.52137889515E+01  0.52137889515E+01  0.00000000000E+00 0. -1.
         22   -1    0    0    0    0 -0.00000000000E+00 -0.00000000000E+00 -0.12206169260E+02  0.12206169260E+02  0.00000000000E+00 0.  1.
          4    1    1    2  501    0  0.59643996132E+01 -0.19898066500E+01  0.16820832774E+01  0.66314174505E+01  0.12700000000E+01 0. -1.
         -4    1    1    2    0  501 -0.59643996132E+01  0.19898066500E+01 -0.86744635863E+01  0.10788540761E+02  0.12700000000E+01 0.  1.
<mgrwt>
<rscale>  0 0.64145376E+01</rscale>
<asrwt>0</asrwt>
<pdfrwt beam="1">0</pdfrwt>
<pdfrwt beam="2">0</pdfrwt>
<totfact> 0.18286822E+11</totfact>
</mgrwt>
</event>
<event>
 4    1  0.1750553E+006  0.4715076E+01  0.7546771E-02  0.2158632E+00
         22   -1    0    0    0    0  0.00000000000E+00  0.00000000000E+00  0.13626561197E+01  0.13626561197E+01  0.00000000000E+00 0. -1.
         22   -1    0    0    0    0 -0.00000000000E+00 -0.00000000000E+00 -0.17143016987E+02  0.17143016987E+02  0.00000000000E+00 0.  1.
          4    1    1    2  501    0 -0.43614338920E+01  0.12637002900E+01 -0.99235231181E+01  0.10986730865E+02  0.12700000000E+01 0.  1.
         -4    1    1    2    0  501  0.43614338920E+01 -0.12637002900E+01 -0.58568377489E+01  0.75189422417E+01  0.12700000000E+01 0. -1.
<mgrwt>
<rscale>  0 0.47150762E+01</rscale>
<asrwt>0</asrwt>
<pdfrwt beam="1">0</pdfrwt>
<pdfrwt beam="2">0</pdfrwt>
<totfact> 0.57563233E+11</totfact>
</mgrwt>
</event>
<event>
 4    1  0.1750553E+006  0.2481254E+01  0.7546771E-02  0.2716853E+00
         22   -1    0    0    0    0  0.00000000000E+00  0.00000000000E+00  0.26842720914E+00  0.26842720914E+00  0.00000000000E+00 0. -1.
         22   -1    0    0    0    0 -0.00000000000E+00 -0.00000000000E+00 -0.22991137714E+02  0.22991137714E+02  0.00000000000E+00 0.  1.
          4    1    1    2  501    0 -0.13333228382E+01  0.16631212329E+01 -0.10791356305E+02  0.11072939670E+02  0.12700000000E+01 0. -1.
         -4    1    1    2    0  501  0.13333228382E+01 -0.16631212329E+01 -0.11931354199E+02  0.12186625253E+02  0.12700000000E+01 0. -1.
<mgrwt>
<rscale>  0 0.24812541E+01</rscale>
<asrwt>0</asrwt>
<pdfrwt beam="1">0</pdfrwt>
<pdfrwt beam="2">0</pdfrwt>
<totfact> 0.25155140E+12</totfact>
</mgrwt>
</event>
<event>
 4    1  0.1750553E+006  0.4972376E+01  0.7546771E-02  0.2126315E+00
         22   -1    0    0    0    0  0.00000000000E+00  0.00000000000E+00  0.14591606454E+02  0.14591606454E+02  0.00000000000E+00 0. -1.
         22   -1    0    0    0    0 -0.00000000000E+00 -0.00000000000E+00 -0.17719118415E+01  0.17719118415E+01  0.00000000000E+00 0.  1.
          4    1    1    2  501    0  0.45112619486E+01  0.16613670442E+01  0.81206988669E+01  0.95220940402E+01  0.12700000000E+01 0.  1.
         -4    1    1    2    0  501 -0.45112619486E+01 -0.16613670442E+01  0.46989957459E+01  0.68414242556E+01  0.12700000000E+01 0. -1.
<mgrwt>
<rscale>  0 0.49723762E+01</rscale>
<asrwt>0</asrwt>
<pdfrwt beam="1">0</pdfrwt>
<pdfrwt beam="2">0</pdfrwt>
<totfact> 0.51896690E+11</totfact>
</mgrwt>
</event>
<event>
 4    1  0.1750553E+006  0.4305508E+01  0.7546771E-02  0.2222441E+00
         22   -1    0    0    0    0  0.00000000000E+00  0.00000000000E+00  0.74973880946E+01  0.74973880946E+01  0.00000000000E+00 0. -1.
         22   -1    0    0    0    0 -0.00000000000E+00 -0.00000000000E+00 -0.25081074462E+01  0.25081074462E+01  0.00000000000E+00 0.  1.
          4    1    1    2  501    0  0.29373755186E+01 -0.28803342872E+01  0.30906011272E+01  0.52999260250E+01  0.12700000000E+01 0. -1.
         -4    1    1    2    0  501 -0.29373755186E+01  0.28803342872E+01  0.18986795211E+01  0.47055695157E+01  0.12700000000E+01 0.  1.
<mgrwt>
<rscale>  0 0.43055082E+01</rscale>
<asrwt>0</asrwt>
<pdfrwt beam="1">0</pdfrwt>
<pdfrwt beam="2">0</pdfrwt>
<totfact> 0.77828651E+11</totfact>
</mgrwt>
</event>
<event>
 4    1  0.1750553E+006  0.2635128E+01  0.7546771E-02  0.2651796E+00
         22   -1    0    0    0    0  0.00000000000E+00  0.00000000000E+00  0.59031198503E+00  0.59031198503E+00  0.00000000000E+00 0.  1.
         22   -1    0    0    0    0 -0.00000000000E+00 -0.00000000000E+00 -0.14652065337E+02  0.14652065337E+02  0.00000000000E+00 0.  1.
          4    1    1    2  501    0 -0.60932042138E+00 -0.22270452311E+01 -0.36467697073E+01  0.44992033890E+01  0.12700000000E+01 0.  1.
         -4    1    1    2    0  501  0.60932042138E+00  0.22270452311E+01 -0.10414983644E+02  0.10743173933E+02  0.12700000000E+01 0.  1.
<mgrwt>
<rscale>  0 0.26351284E+01</rscale>
<asrwt>0</asrwt>
<pdfrwt beam="1">0</pdfrwt>
<pdfrwt beam="2">0</pdfrwt>
<totfact> 0.18130277E+12</totfact>
</mgrwt>
</event>
<event>
 4    1  0.1750553E+006  0.2025426E+01  0.7546771E-02  0.2963771E+00
         22   -1    0    0    0    0  0.00000000000E+00  0.00000000000E+00  0.69482633021E+01  0.69482633021E+01  0.00000000000E+00 0. -1.
         22   -1    0    0    0    0 -0.00000000000E+00 -0.00000000000E+00 -0.74994782510E+00  0.74994782510E+00  0.00000000000E+00 0.  1.
          4    1    1    2  501    0 -0.84564724934E+00 -0.13320398763E+01  0.48744553204E+01  0.52785096546E+01  0.12700000000E+01 0. -1.
         -4    1    1    2    0  501  0.84564724934E+00  0.13320398763E+01  0.13238601566E+01  0.24197014726E+01  0.12700000000E+01 0.  1.
<mgrwt>
<rscale>  0 0.20254258E+01</rscale>
<asrwt>0</asrwt>
<pdfrwt beam="1">0</pdfrwt>
<pdfrwt beam="2">0</pdfrwt>
<totfact> 0.34126523E+12</totfact>
</mgrwt>
</event>
<event>
 4    1  0.1750553E+006  0.2020251E+01  0.7546771E-02  0.2967189E+00
         22   -1    0    0    0    0  0.00000000000E+00  0.00000000000E+00  0.11929188237E+00  0.11929188237E+00  0.00000000000E+00 0.  1.
         22   -1    0    0    0    0 -0.00000000000E+00 -0.00000000000E+00 -0.44385888501E+02  0.44385888501E+02  0.00000000000E+00 0. -1.
          4    1    1    2  501    0  0.13193818734E+01 -0.85308001688E+00 -0.11480449044E+02  0.11656848815E+02  0.12700000000E+01 0.  1.
         -4    1    1    2    0  501 -0.13193818734E+01  0.85308001688E+00 -0.32786147575E+02  0.32848331568E+02  0.12700000000E+01 0. -1.
<mgrwt>
<rscale>  0 0.20202510E+01</rscale>
<asrwt>0</asrwt>
<pdfrwt beam="1">0</pdfrwt>
<pdfrwt beam="2">0</pdfrwt>
<totfact> 0.26750782E+12</totfact>
</mgrwt>
</event>
<event>
 4    1  0.1750553E+006  0.2990579E+01  0.7546771E-02  0.2525165E+00
         22   -1    0    0    0    0  0.00000000000E+00  0.00000000000E+00  0.94259934280E+01  0.94259934280E+01  0.00000000000E+00 0. -1.
         22   -1    0    0    0    0 -0.00000000000E+00 -0.00000000000E+00 -0.47346178301E+01  0.47346178301E+01  0.00000000000E+00 0.  1.
          4    1    1    2  501    0  0.69427395242E+00  0.26169919758E+01  0.86769207972E+01  0.91778275122E+01  0.12700000000E+01 0. -1.
         -4    1    1    2    0  501 -0.69427395242E+00 -0.26169919758E+01 -0.39855451993E+01  0.49827837459E+01  0.12700000000E+01 0.  1.
<mgrwt>
<rscale>  0 0.29905791E+01</rscale>
<asrwt>0</asrwt>
<pdfrwt beam="1">0</pdfrwt>
<pdfrwt beam="2">0</pdfrwt>
<totfact> 0.28053344E+11</totfact>
</mgrwt>
</event>
<event>
 4    1  0.1750553E+006  0.2811051E+01  0.7546771E-02  0.2585487E+00
         22   -1    0    0    0    0  0.00000000000E+00  0.00000000000E+00  0.13206728595E+01  0.13206728595E+01  0.00000000000E+00 0. -1.
         22   -1    0    0    0    0 -0.00000000000E+00 -0.00000000000E+00 -0.10470538755E+02  0.10470538755E+02  0.00000000000E+00 0.  1.
          4    1    1    2  501    0  0.24942914221E+01 -0.26003032633E+00 -0.71541868900E+00  0.29006601610E+01  0.12700000000E+01 0. -1.
         -4    1    1    2    0  501 -0.24942914221E+01  0.26003032633E+00 -0.84344472065E+01  0.88905514536E+01  0.12700000000E+01 0.  1.
<mgrwt>
<rscale>  0 0.28110506E+01</rscale>
<asrwt>0</asrwt>
<pdfrwt beam="1">0</pdfrwt>
<pdfrwt beam="2">0</pdfrwt>
<totfact> 0.10915285E+12</totfact>
</mgrwt>
</event>
<event>
 4    1  0.1750553E+006  0.2272448E+01  0.7546771E-02  0.2818230E+00
         22   -1    0    0    0    0  0.00000000000E+00  0.00000000000E+00  0.43841663854E+01  0.43841663854E+01  0.00000000000E+00 0. -1.
         22   -1    0    0    0    0 -0.00000000000E+00 -0.00000000000E+00 -0.35624766574E+01  0.35624766574E+01  0.00000000000E+00 0. -1.
          4    1    1    2  501    0  0.46741002806E+00  0.18255536170E+01  0.36616073508E+01  0.43094531596E+01  0.12700000000E+01 0. -1.
         -4    1    1    2    0  501 -0.46741002806E+00 -0.18255536170E+01 -0.28399176228E+01  0.36371898833E+01  0.12700000000E+01 0. -1.
<mgrwt>
<rscale>  0 0.22724476E+01</rscale>
<asrwt>0</asrwt>
<pdfrwt beam="1">0</pdfrwt>
<pdfrwt beam="2">0</pdfrwt>
<totfact> 0.97752535E+11</totfact>
</mgrwt>
</event>
<event>
 4    1  0.1750553E+006  0.2067411E+01  0.7546771E-02  0.2936662E+00
         22   -1    0    0    0    0  0.00000000000E+00  0.00000000000E+00  0.71347686956E+01  0.71347686956E+01  0.00000000000E+00 0. -1.
         22   -1    0    0    0    0 -0.00000000000E+00 -0.00000000000E+00 -0.62670956990E+00  0.62670956990E+00  0.00000000000E+00 0.  1.
          4    1    1    2  501    0  0.10073884156E+01 -0.12831441283E+01  0.40690830948E+01  0.45641677780E+01  0.12700000000E+01 0. -1.
         -4    1    1    2    0  501 -0.10073884156E+01  0.12831441283E+01  0.24389760309E+01  0.31973104875E+01  0.12700000000E+01 0.  1.
<mgrwt>
<rscale>  0 0.20674115E+01</rscale>
<asrwt>0</asrwt>
<pdfrwt beam="1">0</pdfrwt>
<pdfrwt beam="2">0</pdfrwt>
<totfact> 0.40532731E+12</totfact>
</mgrwt>
</event>
<event>
 4    1  0.1750553E+006  0.2603637E+01  0.7546771E-02  0.2664531E+00
         22   -1    0    0    0    0  0.00000000000E+00  0.00000000000E+00  0.24966584783E+00  0.24966584783E+00  0.00000000000E+00 0.  1.
         22   -1    0    0    0    0 -0.00000000000E+00 -0.00000000000E+00 -0.28287045800E+02  0.28287045800E+02  0.00000000000E+00 0.  1.
          4    1    1    2  501    0 -0.22526749415E+01 -0.30245456228E+00 -0.11160508166E+02  0.11460186110E+02  0.12700000000E+01 0.  1.
         -4    1    1    2    0  501  0.22526749415E+01  0.30245456228E+00 -0.16876871786E+02  0.17076525538E+02  0.12700000000E+01 0.  1.
<mgrwt>
<rscale>  0 0.26036365E+01</rscale>
<asrwt>0</asrwt>
<pdfrwt beam="1">0</pdfrwt>
<pdfrwt beam="2">0</pdfrwt>
<totfact> 0.20997184E+12</totfact>
</mgrwt>
</event>
<event>
 4    1  0.1750553E+006  0.2449214E+01  0.7546771E-02  0.2731353E+00
         22   -1    0    0    0    0  0.00000000000E+00  0.00000000000E+00  0.50734612847E+01  0.50734612847E+01  0.00000000000E+00 0. -1.
         22   -1    0    0    0    0 -0.00000000000E+00 -0.00000000000E+00 -0.12357772525E+01  0.12357772525E+01  0.00000000000E+00 0. -1.
          4    1    1    2  501    0 -0.18144278568E+01 -0.10457527345E+01  0.25747244565E+01  0.35535690870E+01  0.12700000000E+01 0. -1.
         -4    1    1    2    0  501  0.18144278568E+01  0.10457527345E+01  0.12629595757E+01  0.27556694503E+01  0.12700000000E+01 0. -1.
<mgrwt>
<rscale>  0 0.24492136E+01</rscale>
<asrwt>0</asrwt>
<pdfrwt beam="1">0</pdfrwt>
<pdfrwt beam="2">0</pdfrwt>
<totfact> 0.28061359E+12</totfact>
</mgrwt>
</event>
<event>
 4    1  0.1750553E+006  0.2821330E+01  0.7546771E-02  0.2581846E+00
         22   -1    0    0    0    0  0.00000000000E+00  0.00000000000E+00  0.11310472464E+01  0.11310472464E+01  0.00000000000E+00 0. -1.
         22   -1    0    0    0    0 -0.00000000000E+00 -0.00000000000E+00 -0.91141448202E+01  0.91141448202E+01  0.00000000000E+00 0. -1.
          4    1    1    2  501    0  0.23038643111E+01 -0.10194177067E+01 -0.15464375076E+01  0.32173548436E+01  0.12700000000E+01 0. -1.
         -4    1    1    2    0  501 -0.23038643111E+01  0.10194177067E+01 -0.64366600662E+01  0.70278372230E+01  0.12700000000E+01 0. -1.
<mgrwt>
<rscale>  0 0.28213300E+01</rscale>
<asrwt>0</asrwt>
<pdfrwt beam="1">0</pdfrwt>
<pdfrwt beam="2">0</pdfrwt>
<totfact> 0.15420019E+12</totfact>
</mgrwt>
</event>
<event>
 4    1  0.1750553E+006  0.2500533E+01  0.7546771E-02  0.2708295E+00
         22   -1    0    0    0    0  0.00000000000E+00  0.00000000000E+00  0.61781561782E+00  0.61781561782E+00  0.00000000000E+00 0. -1.
         22   -1    0    0    0    0 -0.00000000000E+00 -0.00000000000E+00 -0.10802466464E+02  0.10802466464E+02  0.00000000000E+00 0.  1.
          4    1    1    2  501    0 -0.69975004343E-01 -0.21528746895E+01 -0.36577135351E+01  0.44307487217E+01  0.12700000000E+01 0. -1.
         -4    1    1    2    0  501  0.69975004343E-01  0.21528746895E+01 -0.65269373113E+01  0.69895333603E+01  0.12700000000E+01 0. -1.
<mgrwt>
<rscale>  0 0.25005331E+01</rscale>
<asrwt>0</asrwt>
<pdfrwt beam="1">0</pdfrwt>
<pdfrwt beam="2">0</pdfrwt>
<totfact> 0.24987810E+12</totfact>
</mgrwt>
</event>
<event>
 4    1  0.1750553E+006  0.3158392E+01  0.7546771E-02  0.2474378E+00
         22   -1    0    0    0    0  0.00000000000E+00  0.00000000000E+00  0.47455064387E+02  0.47455064387E+02  0.00000000000E+00 0. -1.
         22   -1    0    0    0    0 -0.00000000000E+00 -0.00000000000E+00 -0.62599141799E+00  0.62599141799E+00  0.00000000000E+00 0.  1.
          4    1    1    2  501    0  0.26275556993E+01 -0.12076809802E+01  0.43007192038E+02  0.43123010207E+02  0.12700000000E+01 0. -1.
         -4    1    1    2    0  501 -0.26275556993E+01  0.12076809802E+01  0.38218809311E+01  0.49580455983E+01  0.12700000000E+01 0.  1.
<mgrwt>
<rscale>  0 0.31583924E+01</rscale>
<asrwt>0</asrwt>
<pdfrwt beam="1">0</pdfrwt>
<pdfrwt beam="2">0</pdfrwt>
<totfact> 0.38264220E+11</totfact>
</mgrwt>
</event>
<event>
 4    1  0.1750553E+006  0.2633969E+01  0.7546771E-02  0.2652260E+00
         22   -1    0    0    0    0  0.00000000000E+00  0.00000000000E+00  0.18887926740E+01  0.18887926740E+01  0.00000000000E+00 0. -1.
         22   -1    0    0    0    0 -0.00000000000E+00 -0.00000000000E+00 -0.39041865017E+01  0.39041865017E+01  0.00000000000E+00 0.  1.
          4    1    1    2  501    0  0.13556110296E+00  0.23035870490E+01 -0.30306667357E+00  0.26513467358E+01  0.12700000000E+01 0.  1.
         -4    1    1    2    0  501 -0.13556110296E+00 -0.23035870490E+01 -0.17123271541E+01  0.31416324399E+01  0.12700000000E+01 0. -1.
<mgrwt>
<rscale>  0 0.26339685E+01</rscale>
<asrwt>0</asrwt>
<pdfrwt beam="1">0</pdfrwt>
<pdfrwt beam="2">0</pdfrwt>
<totfact> 0.23458717E+12</totfact>
</mgrwt>
</event>
<event>
 4    1  0.1750553E+006  0.3805714E+01  0.7546771E-02  0.2316045E+00
         22   -1    0    0    0    0  0.00000000000E+00  0.00000000000E+00  0.28252597846E+00  0.28252597846E+00  0.00000000000E+00 0. -1.
         22   -1    0    0    0    0 -0.00000000000E+00 -0.00000000000E+00 -0.51827636530E+02  0.51827636530E+02  0.00000000000E+00 0.  1.
          4    1    1    2  501    0 -0.34769482851E+01  0.88396416632E+00 -0.28489261906E+02  0.28742329515E+02  0.12700000000E+01 0. -1.
         -4    1    1    2    0  501  0.34769482851E+01 -0.88396416632E+00 -0.23055848646E+02  0.23367832994E+02  0.12700000000E+01 0.  1.
<mgrwt>
<rscale>  0 0.38057144E+01</rscale>
<asrwt>0</asrwt>
<pdfrwt beam="1">0</pdfrwt>
<pdfrwt beam="2">0</pdfrwt>
<totfact> 0.83476375E+11</totfact>
</mgrwt>
</event>
<event>
 4    1  0.1750553E+006  0.6140674E+01  0.7546771E-02  0.2007297E+00
         22   -1    0    0    0    0  0.00000000000E+00  0.00000000000E+00  0.60054215097E+02  0.60054215097E+02  0.00000000000E+00 0. -1.
         22   -1    0    0    0    0 -0.00000000000E+00 -0.00000000000E+00 -0.66795348705E+00  0.66795348705E+00  0.00000000000E+00 0.  1.
          4    1    1    2  501    0  0.34550857407E+01 -0.49150137619E+01  0.37128099233E+02  0.37632481056E+02  0.12700000000E+01 0. -1.
         -4    1    1    2    0  501 -0.34550857407E+01  0.49150137619E+01  0.22258162377E+02  0.23089687528E+02  0.12700000000E+01 0.  1.
<mgrwt>
<rscale>  0 0.61406740E+01</rscale>
<asrwt>0</asrwt>
<pdfrwt beam="1">0</pdfrwt>
<pdfrwt beam="2">0</pdfrwt>
<totfact> 0.26018011E+11</totfact>
</mgrwt>
</event>
<event>
 4    1  0.1750553E+006  0.2196797E+01  0.7546771E-02  0.2859452E+00
         22   -1    0    0    0    0  0.00000000000E+00  0.00000000000E+00  0.83555965129E+00  0.83555965129E+00  0.00000000000E+00 0.  1.
         22   -1    0    0    0    0 -0.00000000000E+00 -0.00000000000E+00 -0.75967801562E+01  0.75967801562E+01  0.00000000000E+00 0. -1.
          4    1    1    2  501    0 -0.15581500828E+01 -0.88610726056E+00 -0.13163174531E+01  0.25609782106E+01  0.12700000000E+01 0.  1.
         -4    1    1    2    0  501  0.15581500828E+01  0.88610726056E+00 -0.54449030518E+01  0.58713615969E+01  0.12700000000E+01 0. -1.
<mgrwt>
<rscale>  0 0.21967972E+01</rscale>
<asrwt>0</asrwt>
<pdfrwt beam="1">0</pdfrwt>
<pdfrwt beam="2">0</pdfrwt>
<totfact> 0.27120938E+12</totfact>
</mgrwt>
</event>
<event>
 4    1  0.1750553E+006  0.3887201E+01  0.7546771E-02  0.2299389E+00
         22   -1    0    0    0    0  0.00000000000E+00  0.00000000000E+00  0.11604990949E+01  0.11604990949E+01  0.00000000000E+00 0.  1.
         22   -1    0    0    0    0 -0.00000000000E+00 -0.00000000000E+00 -0.13028402120E+02  0.13028402120E+02  0.00000000000E+00 0. -1.
          4    1    1    2  501    0 -0.36545096713E+01 -0.37682051878E+00 -0.57597665259E+01  0.69487585275E+01  0.12700000000E+01 0.  1.
         -4    1    1    2    0  501  0.36545096713E+01  0.37682051878E+00 -0.61081364989E+01  0.72401426871E+01  0.12700000000E+01 0. -1.
<mgrwt>
<rscale>  0 0.38872014E+01</rscale>
<asrwt>0</asrwt>
<pdfrwt beam="1">0</pdfrwt>
<pdfrwt beam="2">0</pdfrwt>
<totfact> 0.97003878E+11</totfact>
</mgrwt>
</event>
<event>
 4    1  0.1750553E+006  0.2134374E+01  0.7546771E-02  0.2895573E+00
         22   -1    0    0    0    0  0.00000000000E+00  0.00000000000E+00  0.23672050319E+01  0.23672050319E+01  0.00000000000E+00 0. -1.
         22   -1    0    0    0    0 -0.00000000000E+00 -0.00000000000E+00 -0.21839249649E+01  0.21839249649E+01  0.00000000000E+00 0.  1.
          4    1    1    2  501    0  0.10659249426E+01  0.13440453855E+01  0.87601365126E+00  0.23071527688E+01  0.12700000000E+01 0. -1.
         -4    1    1    2    0  501 -0.10659249426E+01 -0.13440453855E+01 -0.69273358426E+00  0.22439772281E+01  0.12700000000E+01 0.  1.
<mgrwt>
<rscale>  0 0.21343744E+01</rscale>
<asrwt>0</asrwt>
<pdfrwt beam="1">0</pdfrwt>
<pdfrwt beam="2">0</pdfrwt>
<totfact> 0.35580939E+12</totfact>
</mgrwt>
</event>
<event>
 4    1  0.1750553E+006  0.3128762E+01  0.7546771E-02  0.2482992E+00
         22   -1    0    0    0    0  0.00000000000E+00  0.00000000000E+00  0.67751724546E+00  0.67751724546E+00  0.00000000000E+00 0. -1.
         22   -1    0    0    0    0 -0.00000000000E+00 -0.00000000000E+00 -0.15021944017E+02  0.15021944017E+02  0.00000000000E+00 0.  1.
          4    1    1    2  501    0 -0.21549376816E+01  0.18794925552E+01 -0.56386052025E+01  0.64484895368E+01  0.12700000000E+01 0.  1.
         -4    1    1    2    0  501  0.21549376816E+01 -0.18794925552E+01 -0.87058215692E+01  0.92509717258E+01  0.12700000000E+01 0.  1.
<mgrwt>
<rscale>  0 0.31287615E+01</rscale>
<asrwt>0</asrwt>
<pdfrwt beam="1">0</pdfrwt>
<pdfrwt beam="2">0</pdfrwt>
<totfact> 0.15041061E+12</totfact>
</mgrwt>
</event>
<event>
 4    1  0.1750553E+006  0.3346678E+01  0.7546771E-02  0.2422812E+00
         22   -1    0    0    0    0  0.00000000000E+00  0.00000000000E+00  0.16803884037E+01  0.16803884037E+01  0.00000000000E+00 0. -1.
         22   -1    0    0    0    0 -0.00000000000E+00 -0.00000000000E+00 -0.99899235834E+01  0.99899235834E+01  0.00000000000E+00 0.  1.
          4    1    1    2  501    0 -0.12826659245E+01 -0.28181771849E+01 -0.78853502326E+00  0.34383196480E+01  0.12700000000E+01 0. -1.
         -4    1    1    2    0  501  0.12826659245E+01  0.28181771849E+01 -0.75210001564E+01  0.82319923391E+01  0.12700000000E+01 0.  1.
<mgrwt>
<rscale>  0 0.33466781E+01</rscale>
<asrwt>0</asrwt>
<pdfrwt beam="1">0</pdfrwt>
<pdfrwt beam="2">0</pdfrwt>
<totfact> 0.87581573E+11</totfact>
</mgrwt>
</event>
<event>
 4    1  0.1750553E+006  0.2185575E+01  0.7546771E-02  0.2865800E+00
         22   -1    0    0    0    0  0.00000000000E+00  0.00000000000E+00  0.57102963950E+02  0.57102963950E+02  0.00000000000E+00 0. -1.
         22   -1    0    0    0    0 -0.00000000000E+00 -0.00000000000E+00 -0.10698002247E+00  0.10698002247E+00  0.00000000000E+00 0. -1.
          4    1    1    2  501    0 -0.17587159393E+00  0.17700018907E+01  0.41855812576E+02  0.41912835551E+02  0.12700000000E+01 0. -1.
         -4    1    1    2    0  501  0.17587159393E+00 -0.17700018907E+01  0.15140171352E+02  0.15297108422E+02  0.12700000000E+01 0. -1.
<mgrwt>
<rscale>  0 0.21855749E+01</rscale>
<asrwt>0</asrwt>
<pdfrwt beam="1">0</pdfrwt>
<pdfrwt beam="2">0</pdfrwt>
<totfact> 0.21647042E+12</totfact>
</mgrwt>
</event>
<event>
 4    1  0.1750553E+006  0.2874081E+01  0.7546771E-02  0.2563534E+00
         22   -1    0    0    0    0  0.00000000000E+00  0.00000000000E+00  0.78743203335E+01  0.78743203335E+01  0.00000000000E+00 0. -1.
         22   -1    0    0    0    0 -0.00000000000E+00 -0.00000000000E+00 -0.10614377000E+01  0.10614377000E+01  0.00000000000E+00 0.  1.
          4    1    1    2  501    0 -0.21076956362E+01  0.14849437689E+01  0.38896466275E+01  0.48362888436E+01  0.12700000000E+01 0. -1.
         -4    1    1    2    0  501  0.21076956362E+01 -0.14849437689E+01  0.29232360060E+01  0.40994691899E+01  0.12700000000E+01 0.  1.
<mgrwt>
<rscale>  0 0.28740805E+01</rscale>
<asrwt>0</asrwt>
<pdfrwt beam="1">0</pdfrwt>
<pdfrwt beam="2">0</pdfrwt>
<totfact> 0.19773481E+12</totfact>
</mgrwt>
</event>
<event>
 4    1  0.1750553E+006  0.2591613E+01  0.7546771E-02  0.2669469E+00
         22   -1    0    0    0    0  0.00000000000E+00  0.00000000000E+00  0.22287655238E+01  0.22287655238E+01  0.00000000000E+00 0.  1.
         22   -1    0    0    0    0 -0.00000000000E+00 -0.00000000000E+00 -0.44291040162E+01  0.44291040162E+01  0.00000000000E+00 0. -1.
          4    1    1    2  501    0 -0.22591040252E+01  0.27656672598E-02  0.78180277808E+00  0.27069677186E+01  0.12700000000E+01 0.  1.
         -4    1    1    2    0  501  0.22591040252E+01 -0.27656672598E-02 -0.29821412705E+01  0.39509018214E+01  0.12700000000E+01 0. -1.
<mgrwt>
<rscale>  0 0.25916131E+01</rscale>
<asrwt>0</asrwt>
<pdfrwt beam="1">0</pdfrwt>
<pdfrwt beam="2">0</pdfrwt>
<totfact> 0.16692581E+12</totfact>
</mgrwt>
</event>
<event>
 4    1  0.1750553E+006  0.2674946E+01  0.7546771E-02  0.2636090E+00
         22   -1    0    0    0    0  0.00000000000E+00  0.00000000000E+00  0.10894719565E+01  0.10894719565E+01  0.00000000000E+00 0. -1.
         22   -1    0    0    0    0 -0.00000000000E+00 -0.00000000000E+00 -0.20560498577E+02  0.20560498577E+02  0.00000000000E+00 0.  1.
          4    1    1    2  501    0  0.15276595119E+01  0.17912817017E+01 -0.80528299493E+00  0.27935308162E+01  0.12700000000E+01 0. -1.
         -4    1    1    2    0  501 -0.15276595119E+01 -0.17912817017E+01 -0.18665743625E+02  0.18856439717E+02  0.12700000000E+01 0.  1.
<mgrwt>
<rscale>  0 0.26749456E+01</rscale>
<asrwt>0</asrwt>
<pdfrwt beam="1">0</pdfrwt>
<pdfrwt beam="2">0</pdfrwt>
<totfact> 0.59340596E+11</totfact>
</mgrwt>
</event>
<event>
 4    1  0.1750553E+006  0.2294913E+01  0.7546771E-02  0.2806487E+00
         22   -1    0    0    0    0  0.00000000000E+00  0.00000000000E+00  0.88925162694E+02  0.88925162694E+02  0.00000000000E+00 0. -1.
         22   -1    0    0    0    0 -0.00000000000E+00 -0.00000000000E+00 -0.15287982748E+00  0.15287982748E+00  0.00000000000E+00 0.  1.
          4    1    1    2  501    0  0.10629888794E+01 -0.15886415828E+01  0.79246332026E+02  0.79279554534E+02  0.12700000000E+01 0. -1.
         -4    1    1    2    0  501 -0.10629888794E+01  0.15886415828E+01  0.95259508396E+01  0.97984879872E+01  0.12700000000E+01 0.  1.
<mgrwt>
<rscale>  0 0.22949134E+01</rscale>
<asrwt>0</asrwt>
<pdfrwt beam="1">0</pdfrwt>
<pdfrwt beam="2">0</pdfrwt>
<totfact> 0.79752832E+11</totfact>
</mgrwt>
</event>
<event>
 4    1  0.1750553E+006  0.4226684E+01  0.7546771E-02  0.2235950E+00
         22   -1    0    0    0    0  0.00000000000E+00  0.00000000000E+00  0.80055341484E+00  0.80055341484E+00  0.00000000000E+00 0. -1.
         22   -1    0    0    0    0 -0.00000000000E+00 -0.00000000000E+00 -0.50151741986E+02  0.50151741986E+02  0.00000000000E+00 0.  1.
          4    1    1    2  501    0  0.31643642297E+01  0.24977496606E+01 -0.56956458145E+01  0.70926183874E+01  0.12700000000E+01 0. -1.
         -4    1    1    2    0  501 -0.31643642297E+01 -0.24977496606E+01 -0.43655542757E+02  0.43859677014E+02  0.12700000000E+01 0.  1.
<mgrwt>
<rscale>  0 0.42266836E+01</rscale>
<asrwt>0</asrwt>
<pdfrwt beam="1">0</pdfrwt>
<pdfrwt beam="2">0</pdfrwt>
<totfact> 0.26910264E+11</totfact>
</mgrwt>
</event>
<event>
 4    1  0.1750553E+006  0.3036303E+01  0.7546771E-02  0.2510831E+00
         22   -1    0    0    0    0  0.00000000000E+00  0.00000000000E+00  0.35405376629E+01  0.35405376629E+01  0.00000000000E+00 0. -1.
         22   -1    0    0    0    0 -0.00000000000E+00 -0.00000000000E+00 -0.81387423595E+01  0.81387423595E+01  0.00000000000E+00 0. -1.
          4    1    1    2  501    0  0.27271736861E+01  0.41080019016E+00  0.25166135857E+01  0.39436628976E+01  0.12700000000E+01 0. -1.
         -4    1    1    2    0  501 -0.27271736861E+01 -0.41080019016E+00 -0.71148182823E+01  0.77356171247E+01  0.12700000000E+01 0. -1.
<mgrwt>
<rscale>  0 0.30363025E+01</rscale>
<asrwt>0</asrwt>
<pdfrwt beam="1">0</pdfrwt>
<pdfrwt beam="2">0</pdfrwt>
<totfact> 0.47147597E+11</totfact>
</mgrwt>
</event>
<event>
 4    1  0.1750553E+006  0.4373062E+01  0.7546771E-02  0.2211192E+00
         22   -1    0    0    0    0  0.00000000000E+00  0.00000000000E+00  0.48598845668E+02  0.48598845668E+02  0.00000000000E+00 0.  1.
         22   -1    0    0    0    0 -0.00000000000E+00 -0.00000000000E+00 -0.43385990207E+00  0.43385990207E+00  0.00000000000E+00 0.  1.
          4    1    1    2  501    0 -0.30374879893E+01 -0.28782694372E+01  0.31559945500E+02  0.31861478751E+02  0.12700000000E+01 0.  1.
         -4    1    1    2    0  501  0.30374879893E+01  0.28782694372E+01  0.16605040266E+02  0.17171226819E+02  0.12700000000E+01 0.  1.
<mgrwt>
<rscale>  0 0.43730617E+01</rscale>
<asrwt>0</asrwt>
<pdfrwt beam="1">0</pdfrwt>
<pdfrwt beam="2">0</pdfrwt>
<totfact> 0.56118562E+11</totfact>
</mgrwt>
</event>
<event>
 4    1  0.1750553E+006  0.2121683E+01  0.7546771E-02  0.2903168E+00
         22   -1    0    0    0    0  0.00000000000E+00  0.00000000000E+00  0.42591252044E+02  0.42591252044E+02  0.00000000000E+00 0. -1.
         22   -1    0    0    0    0 -0.00000000000E+00 -0.00000000000E+00 -0.10570633316E+00  0.10570633316E+00  0.00000000000E+00 0.  1.
          4    1    1    2  501    0  0.12978586854E+01  0.10973614439E+01  0.21494462025E+02  0.21598922127E+02  0.12700000000E+01 0. -1.
         -4    1    1    2    0  501 -0.12978586854E+01 -0.10973614439E+01  0.20991083685E+02  0.21098036250E+02  0.12700000000E+01 0.  1.
<mgrwt>
<rscale>  0 0.21216831E+01</rscale>
<asrwt>0</asrwt>
<pdfrwt beam="1">0</pdfrwt>
<pdfrwt beam="2">0</pdfrwt>
<totfact> 0.32281380E+12</totfact>
</mgrwt>
</event>
<event>
 4    1  0.1750553E+006  0.2109323E+01  0.7546771E-02  0.2910649E+00
         22   -1    0    0    0    0  0.00000000000E+00  0.00000000000E+00  0.14568137651E+01  0.14568137651E+01  0.00000000000E+00 0.  1.
         22   -1    0    0    0    0 -0.00000000000E+00 -0.00000000000E+00 -0.40639786638E+01  0.40639786638E+01  0.00000000000E+00 0. -1.
          4    1    1    2  501    0 -0.17879788434E+00 -0.16746270435E+01  0.72460096065E-01  0.21105674317E+01  0.12700000000E+01 0.  1.
         -4    1    1    2    0  501  0.17879788434E+00  0.16746270435E+01 -0.26796249948E+01  0.34102249972E+01  0.12700000000E+01 0. -1.
<mgrwt>
<rscale>  0 0.21093232E+01</rscale>
<asrwt>0</asrwt>
<pdfrwt beam="1">0</pdfrwt>
<pdfrwt beam="2">0</pdfrwt>
<totfact> 0.30186254E+12</totfact>
</mgrwt>
</event>
<event>
 4    1  0.1750553E+006  0.2241851E+01  0.7546771E-02  0.2834582E+00
         22   -1    0    0    0    0  0.00000000000E+00  0.00000000000E+00  0.13505129711E+02  0.13505129711E+02  0.00000000000E+00 0.  1.
         22   -1    0    0    0    0 -0.00000000000E+00 -0.00000000000E+00 -0.17005682251E+01  0.17005682251E+01  0.00000000000E+00 0. -1.
          4    1    1    2  501    0  0.15969566582E+01 -0.92883069668E+00  0.12621939107E+02  0.12819486880E+02  0.12700000000E+01 0.  1.
         -4    1    1    2    0  501 -0.15969566582E+01  0.92883069668E+00 -0.81737762119E+00  0.23862110567E+01  0.12700000000E+01 0. -1.
<mgrwt>
<rscale>  0 0.22418513E+01</rscale>
<asrwt>0</asrwt>
<pdfrwt beam="1">0</pdfrwt>
<pdfrwt beam="2">0</pdfrwt>
<totfact> 0.59833537E+11</totfact>
</mgrwt>
</event>
<event>
 4    1  0.1750553E+006  0.2614571E+01  0.7546771E-02  0.2660077E+00
         22   -1    0    0    0    0  0.00000000000E+00  0.00000000000E+00  0.49407462576E+02  0.49407462576E+02  0.00000000000E+00 0. -1.
         22   -1    0    0    0    0 -0.00000000000E+00 -0.00000000000E+00 -0.13880456327E+00  0.13880456327E+00  0.00000000000E+00 0.  1.
          4    1    1    2  501    0 -0.94552702646E+00 -0.20806391662E+01  0.26037464918E+02  0.26168407671E+02  0.12700000000E+01 0. -1.
         -4    1    1    2    0  501  0.94552702646E+00  0.20806391662E+01  0.23231193095E+02  0.23377859468E+02  0.12700000000E+01 0. -1.
<mgrwt>
<rscale>  0 0.26145708E+01</rscale>
<asrwt>0</asrwt>
<pdfrwt beam="1">0</pdfrwt>
<pdfrwt beam="2">0</pdfrwt>
<totfact> 0.19645881E+12</totfact>
</mgrwt>
</event>
<event>
 4    1  0.1750553E+006  0.4861533E+01  0.7546771E-02  0.2139903E+00
         22   -1    0    0    0    0  0.00000000000E+00  0.00000000000E+00  0.41866138824E+01  0.41866138824E+01  0.00000000000E+00 0. -1.
         22   -1    0    0    0    0 -0.00000000000E+00 -0.00000000000E+00 -0.89419191095E+01  0.89419191095E+01  0.00000000000E+00 0.  1.
          4    1    1    2  501    0 -0.88160086358E+00 -0.46091633590E+01  0.16080796564E+01  0.51205885534E+01  0.12700000000E+01 0. -1.
         -4    1    1    2    0  501  0.88160086358E+00  0.46091633590E+01 -0.63633848836E+01  0.80079444384E+01  0.12700000000E+01 0.  1.
<mgrwt>
<rscale>  0 0.48615334E+01</rscale>
<asrwt>0</asrwt>
<pdfrwt beam="1">0</pdfrwt>
<pdfrwt beam="2">0</pdfrwt>
<totfact> 0.34568045E+11</totfact>
</mgrwt>
</event>
<event>
 4    1  0.1750553E+006  0.2932838E+01  0.7546771E-02  0.2543839E+00
         22   -1    0    0    0    0  0.00000000000E+00  0.00000000000E+00  0.17133575668E+01  0.17133575668E+01  0.00000000000E+00 0.  1.
         22   -1    0    0    0    0 -0.00000000000E+00 -0.00000000000E+00 -0.81214728779E+01  0.81214728779E+01  0.00000000000E+00 0. -1.
          4    1    1    2  501    0 -0.22489309465E+01 -0.13895847713E+01 -0.16538575901E+00  0.29374970107E+01  0.12700000000E+01 0.  1.
         -4    1    1    2    0  501  0.22489309465E+01  0.13895847713E+01 -0.62427295521E+01  0.68973334340E+01  0.12700000000E+01 0. -1.
<mgrwt>
<rscale>  0 0.29328376E+01</rscale>
<asrwt>0</asrwt>
<pdfrwt beam="1">0</pdfrwt>
<pdfrwt beam="2">0</pdfrwt>
<totfact> 0.10994185E+12</totfact>
</mgrwt>
</event>
<event>
 4    1  0.1750553E+006  0.2555218E+01  0.7546771E-02  0.2684676E+00
         22   -1    0    0    0    0  0.00000000000E+00  0.00000000000E+00  0.52382450999E+01  0.52382450999E+01  0.00000000000E+00 0. -1.
         22   -1    0    0    0    0 -0.00000000000E+00 -0.00000000000E+00 -0.13703363798E+01  0.13703363798E+01  0.00000000000E+00 0. -1.
          4    1    1    2  501    0  0.20539878598E+01  0.83508721870E+00  0.29275304653E+01  0.38858166987E+01  0.12700000000E+01 0. -1.
         -4    1    1    2    0  501 -0.20539878598E+01 -0.83508721870E+00  0.94037825484E+00  0.27227647811E+01  0.12700000000E+01 0. -1.
<mgrwt>
<rscale>  0 0.25552176E+01</rscale>
<asrwt>0</asrwt>
<pdfrwt beam="1">0</pdfrwt>
<pdfrwt beam="2">0</pdfrwt>
<totfact> 0.23996915E+12</totfact>
</mgrwt>
</event>
<event>
 4    1  0.1750553E+006  0.2294272E+01  0.7546771E-02  0.2806820E+00
         22   -1    0    0    0    0  0.00000000000E+00  0.00000000000E+00  0.38550773082E+01  0.38550773082E+01  0.00000000000E+00 0.  1.
         22   -1    0    0    0    0 -0.00000000000E+00 -0.00000000000E+00 -0.23154081072E+01  0.23154081072E+01  0.00000000000E+00 0. -1.
          4    1    1    2  501    0  0.14540753361E+01  0.12395352268E+01  0.27460832259E+01  0.35783593650E+01  0.12700000000E+01 0.  1.
         -4    1    1    2    0  501 -0.14540753361E+01 -0.12395352268E+01 -0.12064140249E+01  0.25921260504E+01  0.12700000000E+01 0. -1.
<mgrwt>
<rscale>  0 0.22942717E+01</rscale>
<asrwt>0</asrwt>
<pdfrwt beam="1">0</pdfrwt>
<pdfrwt beam="2">0</pdfrwt>
<totfact> 0.18805545E+12</totfact>
</mgrwt>
</event>
<event>
 4    1  0.1750553E+006  0.2941264E+01  0.7546771E-02  0.2541073E+00
         22   -1    0    0    0    0  0.00000000000E+00  0.00000000000E+00  0.11315521556E+00  0.11315521556E+00  0.00000000000E+00 0.  1.
         22   -1    0    0    0    0 -0.00000000000E+00 -0.00000000000E+00 -0.76649736373E+02  0.76649736373E+02  0.00000000000E+00 0. -1.
          4    1    1    2  501    0  0.41716489905E+00 -0.26199440065E+01 -0.40213776670E+02  0.40321196252E+02  0.12700000000E+01 0. -1.
         -4    1    1    2    0  501 -0.41716489905E+00  0.26199440065E+01 -0.36322804487E+02  0.36441695336E+02  0.12700000000E+01 0.  1.
<mgrwt>
<rscale>  0 0.29412639E+01</rscale>
<asrwt>0</asrwt>
<pdfrwt beam="1">0</pdfrwt>
<pdfrwt beam="2">0</pdfrwt>
<totfact> 0.13671222E+12</totfact>
</mgrwt>
</event>
<event>
 4    1  0.1750553E+006  0.3806752E+01  0.7546771E-02  0.2315829E+00
         22   -1    0    0    0    0  0.00000000000E+00  0.00000000000E+00  0.40247829354E+02  0.40247829354E+02  0.00000000000E+00 0. -1.
         22   -1    0    0    0    0 -0.00000000000E+00 -0.00000000000E+00 -0.19254471341E+01  0.19254471341E+01  0.00000000000E+00 0.  1.
          4    1    1    2  501    0  0.28646857671E+01  0.21614902070E+01  0.38174309615E+02  0.38363645278E+02  0.12700000000E+01 0. -1.
         -4    1    1    2    0  501 -0.28646857671E+01 -0.21614902070E+01  0.14807260501E+00  0.38096312100E+01  0.12700000000E+01 0.  1.
<mgrwt>
<rscale>  0 0.38067525E+01</rscale>
<asrwt>0</asrwt>
<pdfrwt beam="1">0</pdfrwt>
<pdfrwt beam="2">0</pdfrwt>
<totfact> 0.13119074E+11</totfact>
</mgrwt>
</event>
<event>
 4    1  0.1750553E+006  0.2054822E+01  0.7546771E-02  0.2944677E+00
         22   -1    0    0    0    0  0.00000000000E+00  0.00000000000E+00  0.17603247169E+01  0.17603247169E+01  0.00000000000E+00 0.  1.
         22   -1    0    0    0    0 -0.00000000000E+00 -0.00000000000E+00 -0.24033834419E+01  0.24033834419E+01  0.00000000000E+00 0. -1.
          4    1    1    2  501    0  0.13442394627E+01  0.89577600468E+00 -0.22853929464E+00  0.20674923441E+01  0.12700000000E+01 0.  1.
         -4    1    1    2    0  501 -0.13442394627E+01 -0.89577600468E+00 -0.41451943034E+00  0.20962158147E+01  0.12700000000E+01 0. -1.
<mgrwt>
<rscale>  0 0.20548222E+01</rscale>
<asrwt>0</asrwt>
<pdfrwt beam="1">0</pdfrwt>
<pdfrwt beam="2">0</pdfrwt>
<totfact> 0.44864143E+12</totfact>
</mgrwt>
</event>
<event>
 4    1  0.1750553E+006  0.2723697E+01  0.7546771E-02  0.2617434E+00
         22   -1    0    0    0    0  0.00000000000E+00  0.00000000000E+00  0.12734570110E+02  0.12734570110E+02  0.00000000000E+00 0.  1.
         22   -1    0    0    0    0 -0.00000000000E+00 -0.00000000000E+00 -0.11351577449E+01  0.11351577449E+01  0.00000000000E+00 0.  1.
          4    1    1    2  501    0 -0.81529031626E+00 -0.22673613396E+01  0.10638289903E+02  0.10981426948E+02  0.12700000000E+01 0.  1.
         -4    1    1    2    0  501  0.81529031626E+00  0.22673613396E+01  0.96112246189E+00  0.28883009072E+01  0.12700000000E+01 0.  1.
<mgrwt>
<rscale>  0 0.27236971E+01</rscale>
<asrwt>0</asrwt>
<pdfrwt beam="1">0</pdfrwt>
<pdfrwt beam="2">0</pdfrwt>
<totfact> 0.10229939E+12</totfact>
</mgrwt>
</event>
<event>
 4    1  0.1750553E+006  0.2627112E+01  0.7546771E-02  0.2655011E+00
         22   -1    0    0    0    0  0.00000000000E+00  0.00000000000E+00  0.42422999437E+01  0.42422999437E+01  0.00000000000E+00 0.  1.
         22   -1    0    0    0    0 -0.00000000000E+00 -0.00000000000E+00 -0.16971562881E+01  0.16971562881E+01  0.00000000000E+00 0.  1.
          4    1    1    2  501    0  0.87802061221E+00 -0.21255340229E+01  0.66826344778E+00  0.27107731579E+01  0.12700000000E+01 0.  1.
         -4    1    1    2    0  501 -0.87802061221E+00  0.21255340229E+01  0.18768802078E+01  0.32286830740E+01  0.12700000000E+01 0.  1.
<mgrwt>
<rscale>  0 0.26271115E+01</rscale>
<asrwt>0</asrwt>
<pdfrwt beam="1">0</pdfrwt>
<pdfrwt beam="2">0</pdfrwt>
<totfact> 0.24070841E+12</totfact>
</mgrwt>
</event>
<event>
 4    1  0.1750553E+006  0.2587590E+01  0.7546771E-02  0.2671130E+00
         22   -1    0    0    0    0  0.00000000000E+00  0.00000000000E+00  0.18516378906E+02  0.18516378906E+02  0.00000000000E+00 0. -1.
         22   -1    0    0    0    0 -0.00000000000E+00 -0.00000000000E+00 -0.36819671257E+00  0.36819671257E+00  0.00000000000E+00 0.  1.
          4    1    1    2  501    0 -0.22044554644E+01  0.47233419570E+00  0.78107469949E+01  0.82282071015E+01  0.12700000000E+01 0.  1.
         -4    1    1    2    0  501  0.22044554644E+01 -0.47233419570E+00  0.10337435198E+02  0.10656368517E+02  0.12700000000E+01 0. -1.
<mgrwt>
<rscale>  0 0.25875903E+01</rscale>
<asrwt>0</asrwt>
<pdfrwt beam="1">0</pdfrwt>
<pdfrwt beam="2">0</pdfrwt>
<totfact> 0.23123151E+12</totfact>
</mgrwt>
</event>
<event>
 4    1  0.1750553E+006  0.2517977E+01  0.7546771E-02  0.2700657E+00
         22   -1    0    0    0    0  0.00000000000E+00  0.00000000000E+00  0.10683606594E+02  0.10683606594E+02  0.00000000000E+00 0.  1.
         22   -1    0    0    0    0 -0.00000000000E+00 -0.00000000000E+00 -0.81938223979E+00  0.81938223979E+00  0.00000000000E+00 0. -1.
          4    1    1    2  501    0  0.29190843544E+00 -0.21545528878E+01  0.79522344261E+01  0.83413572666E+01  0.12700000000E+01 0.  1.
         -4    1    1    2    0  501 -0.29190843544E+00  0.21545528878E+01  0.19119899280E+01  0.31616315671E+01  0.12700000000E+01 0. -1.
<mgrwt>
<rscale>  0 0.25179771E+01</rscale>
<asrwt>0</asrwt>
<pdfrwt beam="1">0</pdfrwt>
<pdfrwt beam="2">0</pdfrwt>
<totfact> 0.18379236E+12</totfact>
</mgrwt>
</event>
<event>
 4    1  0.1750553E+006  0.2568219E+01  0.7546771E-02  0.2679198E+00
         22   -1    0    0    0    0  0.00000000000E+00  0.00000000000E+00  0.29316017474E+01  0.29316017474E+01  0.00000000000E+00 0.  1.
         22   -1    0    0    0    0 -0.00000000000E+00 -0.00000000000E+00 -0.31267611776E+01  0.31267611776E+01  0.00000000000E+00 0. -1.
          4    1    1    2  501    0 -0.60026323464E-01 -0.22314227453E+01  0.15065830687E+01  0.29775062000E+01  0.12700000000E+01 0.  1.
         -4    1    1    2    0  501  0.60026323464E-01  0.22314227453E+01 -0.17017424988E+01  0.30808567251E+01  0.12700000000E+01 0. -1.
<mgrwt>
<rscale>  0 0.25682193E+01</rscale>
<asrwt>0</asrwt>
<pdfrwt beam="1">0</pdfrwt>
<pdfrwt beam="2">0</pdfrwt>
<totfact> 0.18264274E+12</totfact>
</mgrwt>
</event>
<event>
 4    1  0.1750553E+006  0.2437518E+01  0.7546771E-02  0.2736734E+00
         22   -1    0    0    0    0  0.00000000000E+00  0.00000000000E+00  0.33797673414E+01  0.33797673414E+01  0.00000000000E+00 0.  1.
         22   -1    0    0    0    0 -0.00000000000E+00 -0.00000000000E+00 -0.19912188883E+01  0.19912188883E+01  0.00000000000E+00 0. -1.
          4    1    1    2  501    0  0.17040776288E+01  0.11936133105E+01  0.16134198629E+01  0.29231176771E+01  0.12700000000E+01 0. -1.
         -4    1    1    2    0  501 -0.17040776288E+01 -0.11936133105E+01 -0.22487140981E+00  0.24478685526E+01  0.12700000000E+01 0.  1.
<mgrwt>
<rscale>  0 0.24375179E+01</rscale>
<asrwt>0</asrwt>
<pdfrwt beam="1">0</pdfrwt>
<pdfrwt beam="2">0</pdfrwt>
<totfact> 0.26139700E+12</totfact>
</mgrwt>
</event>
<event>
 4    1  0.1750553E+006  0.2037738E+01  0.7546771E-02  0.2955708E+00
         22   -1    0    0    0    0  0.00000000000E+00  0.00000000000E+00  0.78073751337E+01  0.78073751337E+01  0.00000000000E+00 0. -1.
         22   -1    0    0    0    0 -0.00000000000E+00 -0.00000000000E+00 -0.54776451467E+00  0.54776451467E+00  0.00000000000E+00 0. -1.
          4    1    1    2  501    0 -0.60566757940E+00 -0.14739884881E+01  0.43418112109E+01  0.47962172460E+01  0.12700000000E+01 0. -1.
         -4    1    1    2    0  501  0.60566757940E+00  0.14739884881E+01  0.29177994081E+01  0.35589224023E+01  0.12700000000E+01 0. -1.
<mgrwt>
<rscale>  0 0.20377378E+01</rscale>
<asrwt>0</asrwt>
<pdfrwt beam="1">0</pdfrwt>
<pdfrwt beam="2">0</pdfrwt>
<totfact> 0.42373267E+12</totfact>
</mgrwt>
</event>
<event>
 4    1  0.1750553E+006  0.2503178E+01  0.7546771E-02  0.2707131E+00
         22   -1    0    0    0    0  0.00000000000E+00  0.00000000000E+00  0.82530571281E+01  0.82530571281E+01  0.00000000000E+00 0. -1.
         22   -1    0    0    0    0 -0.00000000000E+00 -0.00000000000E+00 -0.95789792614E+00  0.95789792614E+00  0.00000000000E+00 0. -1.
          4    1    1    2  501    0  0.99384770552E+00 -0.19144882433E+01  0.57450131459E+01  0.62666637490E+01  0.12700000000E+01 0. -1.
         -4    1    1    2    0  501 -0.99384770552E+00  0.19144882433E+01  0.15501460560E+01  0.29442913053E+01  0.12700000000E+01 0. -1.
<mgrwt>
<rscale>  0 0.25031777E+01</rscale>
<asrwt>0</asrwt>
<pdfrwt beam="1">0</pdfrwt>
<pdfrwt beam="2">0</pdfrwt>
<totfact> 0.21012056E+12</totfact>
</mgrwt>
</event>
<event>
 4    1  0.1750553E+006  0.7706119E+01  0.7546771E-02  0.1893730E+00
         22   -1    0    0    0    0  0.00000000000E+00  0.00000000000E+00  0.18586475995E+02  0.18586475995E+02  0.00000000000E+00 0.  1.
         22   -1    0    0    0    0 -0.00000000000E+00 -0.00000000000E+00 -0.15778751294E+02  0.15778751294E+02  0.00000000000E+00 0. -1.
          4    1    1    2  501    0  0.72056327758E+01  0.24187231361E+01  0.16748531615E+02  0.18436311360E+02  0.12700000000E+01 0.  1.
         -4    1    1    2    0  501 -0.72056327758E+01 -0.24187231361E+01 -0.13940806913E+02  0.15928915929E+02  0.12700000000E+01 0. -1.
<mgrwt>
<rscale>  0 0.77061187E+01</rscale>
<asrwt>0</asrwt>
<pdfrwt beam="1">0</pdfrwt>
<pdfrwt beam="2">0</pdfrwt>
<totfact> 0.28615485E+10</totfact>
</mgrwt>
</event>
<event>
 4    1  0.1750553E+006  0.2695911E+01  0.7546771E-02  0.2627991E+00
         22   -1    0    0    0    0  0.00000000000E+00  0.00000000000E+00  0.76283652112E+01  0.76283652112E+01  0.00000000000E+00 0.  1.
         22   -1    0    0    0    0 -0.00000000000E+00 -0.00000000000E+00 -0.23378325316E+01  0.23378325316E+01  0.00000000000E+00 0. -1.
          4    1    1    2  501    0 -0.11088742134E+01  0.21036713205E+01  0.64808408522E+01  0.70192045986E+01  0.12700000000E+01 0.  1.
         -4    1    1    2    0  501  0.11088742134E+01 -0.21036713205E+01 -0.11903081727E+01  0.29469931442E+01  0.12700000000E+01 0. -1.
<mgrwt>
<rscale>  0 0.26959108E+01</rscale>
<asrwt>0</asrwt>
<pdfrwt beam="1">0</pdfrwt>
<pdfrwt beam="2">0</pdfrwt>
<totfact> 0.82718338E+11</totfact>
</mgrwt>
</event>
<event>
 4    1  0.1750553E+006  0.2353147E+01  0.7546771E-02  0.2777040E+00
         22   -1    0    0    0    0  0.00000000000E+00  0.00000000000E+00  0.12267893940E+02  0.12267893940E+02  0.00000000000E+00 0. -1.
         22   -1    0    0    0    0 -0.00000000000E+00 -0.00000000000E+00 -0.63112365898E+00  0.63112365898E+00  0.00000000000E+00 0. -1.
          4    1    1    2  501    0  0.14793018567E+01  0.13175990700E+01  0.92604098976E+01  0.95547105013E+01  0.12700000000E+01 0. -1.
         -4    1    1    2    0  501 -0.14793018567E+01 -0.13175990700E+01  0.23763603838E+01  0.33443070980E+01  0.12700000000E+01 0. -1.
<mgrwt>
<rscale>  0 0.23531471E+01</rscale>
<asrwt>0</asrwt>
<pdfrwt beam="1">0</pdfrwt>
<pdfrwt beam="2">0</pdfrwt>
<totfact> 0.20891928E+12</totfact>
</mgrwt>
</event>
<event>
 4    1  0.1750553E+006  0.2059475E+01  0.7546771E-02  0.2941704E+00
         22   -1    0    0    0    0  0.00000000000E+00  0.00000000000E+00  0.64835263874E+00  0.64835263874E+00  0.00000000000E+00 0.  1.
         22   -1    0    0    0    0 -0.00000000000E+00 -0.00000000000E+00 -0.16036963764E+02  0.16036963764E+02  0.00000000000E+00 0.  1.
          4    1    1    2  501    0  0.44762409925E+00  0.15582581322E+01 -0.12749251996E+01  0.24221622583E+01  0.12700000000E+01 0.  1.
         -4    1    1    2    0  501 -0.44762409925E+00 -0.15582581322E+01 -0.14113685926E+02  0.14263154145E+02  0.12700000000E+01 0.  1.
<mgrwt>
<rscale>  0 0.20594746E+01</rscale>
<asrwt>0</asrwt>
<pdfrwt beam="1">0</pdfrwt>
<pdfrwt beam="2">0</pdfrwt>
<totfact> 0.14585027E+12</totfact>
</mgrwt>
</event>
<event>
 4    1  0.1750553E+006  0.2015987E+01  0.7546771E-02  0.2970018E+00
         22   -1    0    0    0    0  0.00000000000E+00  0.00000000000E+00  0.30978246977E+00  0.30978246977E+00  0.00000000000E+00 0.  1.
         22   -1    0    0    0    0 -0.00000000000E+00 -0.00000000000E+00 -0.20727944355E+02  0.20727944355E+02  0.00000000000E+00 0.  1.
          4    1    1    2  501    0  0.15654750467E+01 -0.24296077888E-01 -0.38361737905E+01  0.43336395526E+01  0.12700000000E+01 0.  1.
         -4    1    1    2    0  501 -0.15654750467E+01  0.24296077888E-01 -0.16581988094E+02  0.16704087272E+02  0.12700000000E+01 0.  1.
<mgrwt>
<rscale>  0 0.20159867E+01</rscale>
<asrwt>0</asrwt>
<pdfrwt beam="1">0</pdfrwt>
<pdfrwt beam="2">0</pdfrwt>
<totfact> 0.24389905E+12</totfact>
</mgrwt>
</event>
<event>
 4    1  0.1750553E+006  0.2038085E+01  0.7546771E-02  0.2955483E+00
         22   -1    0    0    0    0  0.00000000000E+00  0.00000000000E+00  0.96494155153E+01  0.96494155153E+01  0.00000000000E+00 0. -1.
         22   -1    0    0    0    0 -0.00000000000E+00 -0.00000000000E+00 -0.44242551533E+00  0.44242551533E+00  0.00000000000E+00 0.  1.
          4    1    1    2  501    0  0.94680366275E+00 -0.12823616840E+01  0.54329550982E+01  0.58026536829E+01  0.12700000000E+01 0. -1.
         -4    1    1    2    0  501 -0.94680366275E+00  0.12823616840E+01  0.37740349018E+01  0.42891873478E+01  0.12700000000E+01 0.  1.
<mgrwt>
<rscale>  0 0.20380846E+01</rscale>
<asrwt>0</asrwt>
<pdfrwt beam="1">0</pdfrwt>
<pdfrwt beam="2">0</pdfrwt>
<totfact> 0.41780274E+12</totfact>
</mgrwt>
</event>
<event>
 4    1  0.1750553E+006  0.2575883E+01  0.7546771E-02  0.2675992E+00
         22   -1    0    0    0    0  0.00000000000E+00  0.00000000000E+00  0.22217728758E+01  0.22217728758E+01  0.00000000000E+00 0. -1.
         22   -1    0    0    0    0 -0.00000000000E+00 -0.00000000000E+00 -0.32966302584E+01  0.32966302584E+01  0.00000000000E+00 0. -1.
          4    1    1    2  501    0  0.11565250775E+01  0.19195631664E+01  0.30895673549E+00  0.25943452486E+01  0.12700000000E+01 0. -1.
         -4    1    1    2    0  501 -0.11565250775E+01 -0.19195631664E+01 -0.13838141181E+01  0.29240578855E+01  0.12700000000E+01 0. -1.
<mgrwt>
<rscale>  0 0.25758830E+01</rscale>
<asrwt>0</asrwt>
<pdfrwt beam="1">0</pdfrwt>
<pdfrwt beam="2">0</pdfrwt>
<totfact> 0.23705100E+12</totfact>
</mgrwt>
</event>
<event>
 4    1  0.1750553E+006  0.4245470E+01  0.7546771E-02  0.2232692E+00
         22   -1    0    0    0    0  0.00000000000E+00  0.00000000000E+00  0.38234058145E+02  0.38234058145E+02  0.00000000000E+00 0. -1.
         22   -1    0    0    0    0 -0.00000000000E+00 -0.00000000000E+00 -0.47141605054E+00  0.47141605054E+00  0.00000000000E+00 0.  1.
          4    1    1    2  501    0  0.18266068124E+01  0.36158842941E+01  0.18934678360E+02  0.19404794672E+02  0.12700000000E+01 0. -1.
         -4    1    1    2    0  501 -0.18266068124E+01 -0.36158842941E+01  0.18827963735E+02  0.19300679524E+02  0.12700000000E+01 0.  1.
<mgrwt>
<rscale>  0 0.42454695E+01</rscale>
<asrwt>0</asrwt>
<pdfrwt beam="1">0</pdfrwt>
<pdfrwt beam="2">0</pdfrwt>
<totfact> 0.69882756E+11</totfact>
</mgrwt>
</event>
<event>
 4    1  0.1750553E+006  0.2034509E+01  0.7546771E-02  0.2957813E+00
         22   -1    0    0    0    0  0.00000000000E+00  0.00000000000E+00  0.74441630500E+01  0.74441630500E+01  0.00000000000E+00 0.  1.
         22   -1    0    0    0    0 -0.00000000000E+00 -0.00000000000E+00 -0.55987018609E+00  0.55987018609E+00  0.00000000000E+00 0.  1.
          4    1    1    2  501    0  0.32257704328E+00 -0.15563652323E+01  0.31109955944E+01  0.37171927948E+01  0.12700000000E+01 0.  1.
         -4    1    1    2    0  501 -0.32257704328E+00  0.15563652323E+01  0.37732972695E+01  0.42868404413E+01  0.12700000000E+01 0.  1.
<mgrwt>
<rscale>  0 0.20345094E+01</rscale>
<asrwt>0</asrwt>
<pdfrwt beam="1">0</pdfrwt>
<pdfrwt beam="2">0</pdfrwt>
<totfact> 0.43769459E+12</totfact>
</mgrwt>
</event>
<event>
 4    1  0.1750553E+006  0.2103985E+01  0.7546771E-02  0.2913906E+00
         22   -1    0    0    0    0  0.00000000000E+00  0.00000000000E+00  0.25021915880E+02  0.25021915880E+02  0.00000000000E+00 0.  1.
         22   -1    0    0    0    0 -0.00000000000E+00 -0.00000000000E+00 -0.23697040296E+00  0.23697040296E+00  0.00000000000E+00 0. -1.
          4    1    1    2  501    0 -0.14363579680E+01 -0.86644573387E+00  0.18750365026E+02  0.18868040201E+02  0.12700000000E+01 0.  1.
         -4    1    1    2    0  501  0.14363579680E+01  0.86644573387E+00  0.60345804510E+01  0.63908460819E+01  0.12700000000E+01 0.  1.
<mgrwt>
<rscale>  0 0.21039849E+01</rscale>
<asrwt>0</asrwt>
<pdfrwt beam="1">0</pdfrwt>
<pdfrwt beam="2">0</pdfrwt>
<totfact> 0.25995122E+12</totfact>
</mgrwt>
</event>
<event>
 4    1  0.1750553E+006  0.2494623E+01  0.7546771E-02  0.2710905E+00
         22   -1    0    0    0    0  0.00000000000E+00  0.00000000000E+00  0.31055544618E+01  0.31055544618E+01  0.00000000000E+00 0.  1.
         22   -1    0    0    0    0 -0.00000000000E+00 -0.00000000000E+00 -0.33283901562E+01  0.33283901562E+01  0.00000000000E+00 0.  1.
          4    1    1    2  501    0 -0.18446502605E+01 -0.10988668022E+01  0.19179402109E+01  0.31466867472E+01  0.12700000000E+01 0.  1.
         -4    1    1    2    0  501  0.18446502605E+01  0.10988668022E+01 -0.21407759052E+01  0.32872578708E+01  0.12700000000E+01 0.  1.
<mgrwt>
<rscale>  0 0.24946228E+01</rscale>
<asrwt>0</asrwt>
<pdfrwt beam="1">0</pdfrwt>
<pdfrwt beam="2">0</pdfrwt>
<totfact> 0.15870501E+12</totfact>
</mgrwt>
</event>
<event>
 4    1  0.1750553E+006  0.2217727E+01  0.7546771E-02  0.2847779E+00
         22   -1    0    0    0    0  0.00000000000E+00  0.00000000000E+00  0.24142439991E+01  0.24142439991E+01  0.00000000000E+00 0. -1.
         22   -1    0    0    0    0 -0.00000000000E+00 -0.00000000000E+00 -0.21731437375E+01  0.21731437375E+01  0.00000000000E+00 0.  1.
          4    1    1    2  501    0  0.31152432945E+00  0.17911913938E+01  0.69421750323E+00  0.23238442200E+01  0.12700000000E+01 0. -1.
         -4    1    1    2    0  501 -0.31152432945E+00 -0.17911913938E+01 -0.45311724155E+00  0.22635435166E+01  0.12700000000E+01 0. -1.
<mgrwt>
<rscale>  0 0.22177272E+01</rscale>
<asrwt>0</asrwt>
<pdfrwt beam="1">0</pdfrwt>
<pdfrwt beam="2">0</pdfrwt>
<totfact> 0.34977413E+12</totfact>
</mgrwt>
</event>
<event>
 4    1  0.1750553E+006  0.2136131E+01  0.7546771E-02  0.2894529E+00
         22   -1    0    0    0    0  0.00000000000E+00  0.00000000000E+00  0.19359422641E+01  0.19359422641E+01  0.00000000000E+00 0.  1.
         22   -1    0    0    0    0 -0.00000000000E+00 -0.00000000000E+00 -0.23713597361E+01  0.23713597361E+01  0.00000000000E+00 0. -1.
          4    1    1    2  501    0  0.64815278226E+00  0.15906143969E+01 -0.38517797042E+00  0.21705801661E+01  0.12700000000E+01 0. -1.
         -4    1    1    2    0  501 -0.64815278226E+00 -0.15906143969E+01 -0.50239501656E-01  0.21367218341E+01  0.12700000000E+01 0.  1.
<mgrwt>
<rscale>  0 0.21361311E+01</rscale>
<asrwt>0</asrwt>
<pdfrwt beam="1">0</pdfrwt>
<pdfrwt beam="2">0</pdfrwt>
<totfact> 0.40827862E+12</totfact>
</mgrwt>
</event>
<event>
 4    1  0.1750553E+006  0.2046154E+01  0.7546771E-02  0.2950251E+00
         22   -1    0    0    0    0  0.00000000000E+00  0.00000000000E+00  0.10566980799E+01  0.10566980799E+01  0.00000000000E+00 0.  1.
         22   -1    0    0    0    0 -0.00000000000E+00 -0.00000000000E+00 -0.64933503451E+01  0.64933503451E+01  0.00000000000E+00 0. -1.
          4    1    1    2  501    0 -0.27646911389E-01 -0.16040830415E+01 -0.36136399433E+00  0.20778187342E+01  0.12700000000E+01 0.  1.
         -4    1    1    2    0  501  0.27646911389E-01  0.16040830415E+01 -0.50752882709E+01  0.54722296908E+01  0.12700000000E+01 0. -1.
<mgrwt>
<rscale>  0 0.20461541E+01</rscale>
<asrwt>0</asrwt>
<pdfrwt beam="1">0</pdfrwt>
<pdfrwt beam="2">0</pdfrwt>
<totfact> 0.25032439E+12</totfact>
</mgrwt>
</event>
<event>
 4    1  0.1750553E+006  0.3017478E+01  0.7546771E-02  0.2516686E+00
         22   -1    0    0    0    0  0.00000000000E+00  0.00000000000E+00  0.43407304444E+01  0.43407304444E+01  0.00000000000E+00 0. -1.
         22   -1    0    0    0    0 -0.00000000000E+00 -0.00000000000E+00 -0.22110300284E+01  0.22110300284E+01  0.00000000000E+00 0.  1.
          4    1    1    2  501    0 -0.75604435503E+00 -0.26307165744E+01  0.18067918738E+01  0.35170541134E+01  0.12700000000E+01 0. -1.
         -4    1    1    2    0  501  0.75604435503E+00  0.26307165744E+01  0.32290854217E+00  0.30347063594E+01  0.12700000000E+01 0.  1.
<mgrwt>
<rscale>  0 0.30174779E+01</rscale>
<asrwt>0</asrwt>
<pdfrwt beam="1">0</pdfrwt>
<pdfrwt beam="2">0</pdfrwt>
<totfact> 0.17253642E+12</totfact>
</mgrwt>
</event>
<event>
 4    1  0.1750553E+006  0.2688915E+01  0.7546771E-02  0.2630681E+00
         22   -1    0    0    0    0  0.00000000000E+00  0.00000000000E+00  0.51497278839E+01  0.51497278839E+01  0.00000000000E+00 0.  1.
         22   -1    0    0    0    0 -0.00000000000E+00 -0.00000000000E+00 -0.14382961355E+01  0.14382961355E+01  0.00000000000E+00 0. -1.
          4    1    1    2  501    0  0.23582404334E+01 -0.23678475601E+00  0.13471282308E+01  0.30074938791E+01  0.12700000000E+01 0. -1.
         -4    1    1    2    0  501 -0.23582404334E+01  0.23678475601E+00  0.23643035176E+01  0.35805301403E+01  0.12700000000E+01 0.  1.
<mgrwt>
<rscale>  0 0.26889152E+01</rscale>
<asrwt>0</asrwt>
<pdfrwt beam="1">0</pdfrwt>
<pdfrwt beam="2">0</pdfrwt>
<totfact> 0.23161962E+12</totfact>
</mgrwt>
</event>
<event>
 4    1  0.1750553E+006  0.2037574E+01  0.7546771E-02  0.2955815E+00
         22   -1    0    0    0    0  0.00000000000E+00  0.00000000000E+00  0.14511020726E+02  0.14511020726E+02  0.00000000000E+00 0. -1.
         22   -1    0    0    0    0 -0.00000000000E+00 -0.00000000000E+00 -0.10455700927E+01  0.10455700927E+01  0.00000000000E+00 0. -1.
          4    1    1    2  501    0 -0.13367125886E+01  0.86718395498E+00  0.13361925228E+02  0.13516388362E+02  0.12700000000E+01 0. -1.
         -4    1    1    2    0  501  0.13367125886E+01 -0.86718395498E+00  0.10352540582E+00  0.20402024571E+01  0.12700000000E+01 0. -1.
<mgrwt>
<rscale>  0 0.20375742E+01</rscale>
<asrwt>0</asrwt>
<pdfrwt beam="1">0</pdfrwt>
<pdfrwt beam="2">0</pdfrwt>
<totfact> 0.95754148E+11</totfact>
</mgrwt>
</event>
<event>
 4    1  0.1750553E+006  0.4342544E+01  0.7546771E-02  0.2216237E+00
         22   -1    0    0    0    0  0.00000000000E+00  0.00000000000E+00  0.41524827117E+00  0.41524827117E+00  0.00000000000E+00 0.  1.
         22   -1    0    0    0    0 -0.00000000000E+00 -0.00000000000E+00 -0.60400059296E+02  0.60400059296E+02  0.00000000000E+00 0. -1.
          4    1    1    2  501    0  0.41264326417E+01  0.46619986928E+00 -0.14845574445E+02  0.15467668514E+02  0.12700000000E+01 0.  1.
         -4    1    1    2    0  501 -0.41264326417E+01 -0.46619986928E+00 -0.45139236580E+02  0.45347639053E+02  0.12700000000E+01 0. -1.
<mgrwt>
<rscale>  0 0.43425440E+01</rscale>
<asrwt>0</asrwt>
<pdfrwt beam="1">0</pdfrwt>
<pdfrwt beam="2">0</pdfrwt>
<totfact> 0.44181651E+11</totfact>
</mgrwt>
</event>
<event>
 4    1  0.1750553E+006  0.2038708E+01  0.7546771E-02  0.2955077E+00
         22   -1    0    0    0    0  0.00000000000E+00  0.00000000000E+00  0.54762527528E+00  0.54762527528E+00  0.00000000000E+00 0. -1.
         22   -1    0    0    0    0 -0.00000000000E+00 -0.00000000000E+00 -0.82126851040E+01  0.82126851040E+01  0.00000000000E+00 0.  1.
          4    1    1    2  501    0 -0.12944842700E+01 -0.93152564524E+00 -0.26261772560E+01  0.33246257734E+01  0.12700000000E+01 0.  1.
         -4    1    1    2    0  501  0.12944842700E+01  0.93152564524E+00 -0.50388825727E+01  0.54356846059E+01  0.12700000000E+01 0. -1.
<mgrwt>
<rscale>  0 0.20387078E+01</rscale>
<asrwt>0</asrwt>
<pdfrwt beam="1">0</pdfrwt>
<pdfrwt beam="2">0</pdfrwt>
<totfact> 0.39884897E+12</totfact>
</mgrwt>
</event>
<event>
 4    1  0.1750553E+006  0.3938468E+01  0.7546771E-02  0.2289213E+00
         22   -1    0    0    0    0  0.00000000000E+00  0.00000000000E+00  0.48044593216E+01  0.48044593216E+01  0.00000000000E+00 0. -1.
         22   -1    0    0    0    0 -0.00000000000E+00 -0.00000000000E+00 -0.39689683681E+01  0.39689683681E+01  0.00000000000E+00 0.  1.
          4    1    1    2  501    0 -0.35262973267E+01  0.12099013064E+01  0.23124136749E+01  0.45671425434E+01  0.12700000000E+01 0. -1.
         -4    1    1    2    0  501  0.35262973267E+01 -0.12099013064E+01 -0.14769227214E+01  0.42062851464E+01  0.12700000000E+01 0.  1.
<mgrwt>
<rscale>  0 0.39384685E+01</rscale>
<asrwt>0</asrwt>
<pdfrwt beam="1">0</pdfrwt>
<pdfrwt beam="2">0</pdfrwt>
<totfact> 0.77279288E+11</totfact>
</mgrwt>
</event>
<event>
 4    1  0.1750553E+006  0.2226814E+01  0.7546771E-02  0.2842776E+00
         22   -1    0    0    0    0  0.00000000000E+00  0.00000000000E+00  0.32571249249E+00  0.32571249249E+00  0.00000000000E+00 0. -1.
         22   -1    0    0    0    0 -0.00000000000E+00 -0.00000000000E+00 -0.15416646765E+02  0.15416646765E+02  0.00000000000E+00 0.  1.
          4    1    1    2  501    0  0.18081680891E+01  0.27627614788E+00 -0.66659567459E+01  0.70280637224E+01  0.12700000000E+01 0. -1.
         -4    1    1    2    0  501 -0.18081680891E+01 -0.27627614788E+00 -0.84249775262E+01  0.87142955346E+01  0.12700000000E+01 0. -1.
<mgrwt>
<rscale>  0 0.22268139E+01</rscale>
<asrwt>0</asrwt>
<pdfrwt beam="1">0</pdfrwt>
<pdfrwt beam="2">0</pdfrwt>
<totfact> 0.33287334E+12</totfact>
</mgrwt>
</event>
<event>
 4    1  0.1750553E+006  0.3869809E+01  0.7546771E-02  0.2302894E+00
         22   -1    0    0    0    0  0.00000000000E+00  0.00000000000E+00  0.52617710912E+01  0.52617710912E+01  0.00000000000E+00 0.  1.
         22   -1    0    0    0    0 -0.00000000000E+00 -0.00000000000E+00 -0.29255748196E+01  0.29255748196E+01  0.00000000000E+00 0. -1.
          4    1    1    2  501    0 -0.20391233426E+01  0.30338915659E+01  0.49329567764E+00  0.39011232569E+01  0.12700000000E+01 0.  1.
         -4    1    1    2    0  501  0.20391233426E+01 -0.30338915659E+01  0.18429005940E+01  0.42862226540E+01  0.12700000000E+01 0. -1.
<mgrwt>
<rscale>  0 0.38698090E+01</rscale>
<asrwt>0</asrwt>
<pdfrwt beam="1">0</pdfrwt>
<pdfrwt beam="2">0</pdfrwt>
<totfact> 0.99206755E+11</totfact>
</mgrwt>
</event>
<event>
 4    1  0.1750553E+006  0.6690448E+01  0.7546771E-02  0.1962791E+00
         22   -1    0    0    0    0  0.00000000000E+00  0.00000000000E+00  0.51008126060E+01  0.51008126060E+01  0.00000000000E+00 0.  1.
         22   -1    0    0    0    0 -0.00000000000E+00 -0.00000000000E+00 -0.15801654157E+02  0.15801654157E+02  0.00000000000E+00 0. -1.
          4    1    1    2  501    0 -0.43017140068E+01 -0.49643176263E+01  0.16186622868E+01  0.68834700907E+01  0.12700000000E+01 0.  1.
         -4    1    1    2    0  501  0.43017140068E+01  0.49643176263E+01 -0.12319503838E+02  0.14018996672E+02  0.12700000000E+01 0. -1.
<mgrwt>
<rscale>  0 0.66904479E+01</rscale>
<asrwt>0</asrwt>
<pdfrwt beam="1">0</pdfrwt>
<pdfrwt beam="2">0</pdfrwt>
<totfact> 0.13673422E+11</totfact>
</mgrwt>
</event>
<event>
 4    1  0.1750553E+006  0.3262920E+01  0.7546771E-02  0.2445102E+00
         22   -1    0    0    0    0  0.00000000000E+00  0.00000000000E+00  0.13761611628E+02  0.13761611628E+02  0.00000000000E+00 0. -1.
         22   -1    0    0    0    0 -0.00000000000E+00 -0.00000000000E+00 -0.77395836602E+00  0.77395836602E+00  0.00000000000E+00 0.  1.
          4    1    1    2  501    0  0.29340875455E+01 -0.65182464712E+00  0.66393355821E+01  0.73977984608E+01  0.12700000000E+01 0. -1.
         -4    1    1    2    0  501 -0.29340875455E+01  0.65182464712E+00  0.63483176795E+01  0.71377715328E+01  0.12700000000E+01 0.  1.
<mgrwt>
<rscale>  0 0.32629197E+01</rscale>
<asrwt>0</asrwt>
<pdfrwt beam="1">0</pdfrwt>
<pdfrwt beam="2">0</pdfrwt>
<totfact> 0.14400746E+12</totfact>
</mgrwt>
</event>
<event>
 4    1  0.1750553E+006  0.2068795E+01  0.7546771E-02  0.2935787E+00
         22   -1    0    0    0    0  0.00000000000E+00  0.00000000000E+00  0.13398592724E+02  0.13398592724E+02  0.00000000000E+00 0.  1.
         22   -1    0    0    0    0 -0.00000000000E+00 -0.00000000000E+00 -0.42499472102E+00  0.42499472102E+00  0.00000000000E+00 0.  1.
          4    1    1    2  501    0  0.15625207142E+01  0.47491193697E+00  0.30420433218E+01  0.36788503506E+01  0.12700000000E+01 0.  1.
         -4    1    1    2    0  501 -0.15625207142E+01 -0.47491193697E+00  0.99315546808E+01  0.10144737094E+02  0.12700000000E+01 0.  1.
<mgrwt>
<rscale>  0 0.20687949E+01</rscale>
<asrwt>0</asrwt>
<pdfrwt beam="1">0</pdfrwt>
<pdfrwt beam="2">0</pdfrwt>
<totfact> 0.29320611E+12</totfact>
</mgrwt>
</event>
<event>
 4    1  0.1750553E+006  0.2011113E+01  0.7546771E-02  0.2973265E+00
         22   -1    0    0    0    0  0.00000000000E+00  0.00000000000E+00  0.13454191792E+02  0.13454191792E+02  0.00000000000E+00 0. -1.
         22   -1    0    0    0    0 -0.00000000000E+00 -0.00000000000E+00 -0.45815915212E+00  0.45815915212E+00  0.00000000000E+00 0. -1.
          4    1    1    2  501    0  0.55146566890E+00 -0.14586163294E+01  0.10577065765E+02  0.10766563805E+02  0.12700000000E+01 0. -1.
         -4    1    1    2    0  501 -0.55146566890E+00  0.14586163294E+01  0.24189668753E+01  0.31457871390E+01  0.12700000000E+01 0. -1.
<mgrwt>
<rscale>  0 0.20111131E+01</rscale>
<asrwt>0</asrwt>
<pdfrwt beam="1">0</pdfrwt>
<pdfrwt beam="2">0</pdfrwt>
<totfact> 0.26802633E+12</totfact>
</mgrwt>
</event>
<event>
 4    1  0.1750553E+006  0.2590837E+01  0.7546771E-02  0.2669789E+00
         22   -1    0    0    0    0  0.00000000000E+00  0.00000000000E+00  0.30945270833E+01  0.30945270833E+01  0.00000000000E+00 0.  1.
         22   -1    0    0    0    0 -0.00000000000E+00 -0.00000000000E+00 -0.38674358361E+01  0.38674358361E+01  0.00000000000E+00 0. -1.
          4    1    1    2  501    0 -0.22790357666E+00  0.22466859739E+01  0.19202813357E+01  0.32248904344E+01  0.12700000000E+01 0.  1.
         -4    1    1    2    0  501  0.22790357666E+00 -0.22466859739E+01 -0.26931900885E+01  0.37370724851E+01  0.12700000000E+01 0. -1.
<mgrwt>
<rscale>  0 0.25908373E+01</rscale>
<asrwt>0</asrwt>
<pdfrwt beam="1">0</pdfrwt>
<pdfrwt beam="2">0</pdfrwt>
<totfact> 0.13363055E+12</totfact>
</mgrwt>
</event>
<event>
 4    1  0.1750553E+006  0.2759046E+01  0.7546771E-02  0.2604284E+00
         22   -1    0    0    0    0  0.00000000000E+00  0.00000000000E+00  0.31487038944E+00  0.31487038944E+00  0.00000000000E+00 0. -1.
         22   -1    0    0    0    0 -0.00000000000E+00 -0.00000000000E+00 -0.40531979662E+02  0.40531979662E+02  0.00000000000E+00 0. -1.
          4    1    1    2  501    0 -0.15873509931E+01  0.18654099586E+01 -0.71347712323E+01  0.76496599942E+01  0.12700000000E+01 0. -1.
         -4    1    1    2    0  501  0.15873509931E+01 -0.18654099586E+01 -0.33082338040E+02  0.33197190057E+02  0.12700000000E+01 0. -1.
<mgrwt>
<rscale>  0 0.27590465E+01</rscale>
<asrwt>0</asrwt>
<pdfrwt beam="1">0</pdfrwt>
<pdfrwt beam="2">0</pdfrwt>
<totfact> 0.10202162E+12</totfact>
</mgrwt>
</event>
<event>
 4    1  0.1750553E+006  0.2160988E+01  0.7546771E-02  0.2879927E+00
         22   -1    0    0    0    0  0.00000000000E+00  0.00000000000E+00  0.36239806240E+01  0.36239806240E+01  0.00000000000E+00 0. -1.
         22   -1    0    0    0    0 -0.00000000000E+00 -0.00000000000E+00 -0.13113854016E+01  0.13113854016E+01  0.00000000000E+00 0.  1.
          4    1    1    2  501    0 -0.12555497036E+01  0.12167851637E+01  0.14815547767E+01  0.26200907903E+01  0.12700000000E+01 0.  1.
         -4    1    1    2    0  501  0.12555497036E+01 -0.12167851637E+01  0.83104044565E+00  0.23152752353E+01  0.12700000000E+01 0. -1.
<mgrwt>
<rscale>  0 0.21609885E+01</rscale>
<asrwt>0</asrwt>
<pdfrwt beam="1">0</pdfrwt>
<pdfrwt beam="2">0</pdfrwt>
<totfact> 0.38974692E+12</totfact>
</mgrwt>
</event>
<event>
 4    1  0.1750553E+006  0.2499365E+01  0.7546771E-02  0.2708810E+00
         22   -1    0    0    0    0  0.00000000000E+00  0.00000000000E+00  0.54387482891E+01  0.54387482891E+01  0.00000000000E+00 0. -1.
         22   -1    0    0    0    0 -0.00000000000E+00 -0.00000000000E+00 -0.15927204890E+01  0.15927204890E+01  0.00000000000E+00 0.  1.
          4    1    1    2  501    0  0.21296119431E+01 -0.31413000228E+00  0.37795680019E+01  0.45312204722E+01  0.12700000000E+01 0.  1.
         -4    1    1    2    0  501 -0.21296119431E+01  0.31413000228E+00  0.66459798178E-01  0.25002483060E+01  0.12700000000E+01 0.  1.
<mgrwt>
<rscale>  0 0.24993649E+01</rscale>
<asrwt>0</asrwt>
<pdfrwt beam="1">0</pdfrwt>
<pdfrwt beam="2">0</pdfrwt>
<totfact> 0.19305190E+12</totfact>
</mgrwt>
</event>
<event>
 4    1  0.1750553E+006  0.2004279E+01  0.7546771E-02  0.2977845E+00
         22   -1    0    0    0    0  0.00000000000E+00  0.00000000000E+00  0.93396180292E-01  0.93396180292E-01  0.00000000000E+00 0. -1.
         22   -1    0    0    0    0 -0.00000000000E+00 -0.00000000000E+00 -0.44847572255E+02  0.44847572255E+02  0.00000000000E+00 0. -1.
          4    1    1    2  501    0 -0.10999617618E+00 -0.15466532303E+01 -0.26923360615E+02  0.26997860696E+02  0.12700000000E+01 0. -1.
         -4    1    1    2    0  501  0.10999617618E+00  0.15466532303E+01 -0.17830815459E+02  0.17943107738E+02  0.12700000000E+01 0. -1.
<mgrwt>
<rscale>  0 0.20042793E+01</rscale>
<asrwt>0</asrwt>
<pdfrwt beam="1">0</pdfrwt>
<pdfrwt beam="2">0</pdfrwt>
<totfact> 0.34607914E+12</totfact>
</mgrwt>
</event>
<event>
 4    1  0.1750553E+006  0.2398211E+01  0.7546771E-02  0.2755181E+00
         22   -1    0    0    0    0  0.00000000000E+00  0.00000000000E+00  0.17850302711E+02  0.17850302711E+02  0.00000000000E+00 0. -1.
         22   -1    0    0    0    0 -0.00000000000E+00 -0.00000000000E+00 -0.37278137220E+00  0.37278137220E+00  0.00000000000E+00 0. -1.
          4    1    1    2  501    0  0.15255806483E+01 -0.13457776478E+01  0.12094969379E+02  0.12330437870E+02  0.12700000000E+01 0. -1.
         -4    1    1    2    0  501 -0.15255806483E+01  0.13457776478E+01  0.53825519596E+01  0.58926462128E+01  0.12700000000E+01 0. -1.
<mgrwt>
<rscale>  0 0.23982105E+01</rscale>
<asrwt>0</asrwt>
<pdfrwt beam="1">0</pdfrwt>
<pdfrwt beam="2">0</pdfrwt>
<totfact> 0.23864178E+12</totfact>
</mgrwt>
</event>
<event>
 4    1  0.1750553E+006  0.2381760E+01  0.7546771E-02  0.2763070E+00
         22   -1    0    0    0    0  0.00000000000E+00  0.00000000000E+00  0.19673489477E+01  0.19673489477E+01  0.00000000000E+00 0. -1.
         22   -1    0    0    0    0 -0.00000000000E+00 -0.00000000000E+00 -0.40139871175E+01  0.40139871175E+01  0.00000000000E+00 0. -1.
          4    1    1    2  501    0 -0.20072883736E+01 -0.17514002802E+00  0.56383784304E+00  0.24475893768E+01  0.12700000000E+01 0. -1.
         -4    1    1    2    0  501  0.20072883736E+01  0.17514002802E+00 -0.26104760128E+01  0.35337466884E+01  0.12700000000E+01 0. -1.
<mgrwt>
<rscale>  0 0.23817600E+01</rscale>
<asrwt>0</asrwt>
<pdfrwt beam="1">0</pdfrwt>
<pdfrwt beam="2">0</pdfrwt>
<totfact> 0.21659963E+12</totfact>
</mgrwt>
</event>
<event>
 4    1  0.1750553E+006  0.4418756E+01  0.7546771E-02  0.2203747E+00
         22   -1    0    0    0    0  0.00000000000E+00  0.00000000000E+00  0.30537493071E+00  0.30537493071E+00  0.00000000000E+00 0.  1.
         22   -1    0    0    0    0 -0.00000000000E+00 -0.00000000000E+00 -0.65643670474E+02  0.65643670474E+02  0.00000000000E+00 0. -1.
          4    1    1    2  501    0 -0.40052797120E+01 -0.13675660457E+01 -0.37982734899E+02  0.38238901042E+02  0.12700000000E+01 0.  1.
         -4    1    1    2    0  501  0.40052797120E+01  0.13675660457E+01 -0.27355560644E+02  0.27710144363E+02  0.12700000000E+01 0. -1.
<mgrwt>
<rscale>  0 0.44187558E+01</rscale>
<asrwt>0</asrwt>
<pdfrwt beam="1">0</pdfrwt>
<pdfrwt beam="2">0</pdfrwt>
<totfact> 0.55802190E+11</totfact>
</mgrwt>
</event>
<event>
 4    1  0.1750553E+006  0.2649084E+01  0.7546771E-02  0.2646242E+00
         22   -1    0    0    0    0  0.00000000000E+00  0.00000000000E+00  0.41961210555E+00  0.41961210555E+00  0.00000000000E+00 0. -1.
         22   -1    0    0    0    0 -0.00000000000E+00 -0.00000000000E+00 -0.16788370665E+02  0.16788370665E+02  0.00000000000E+00 0.  1.
          4    1    1    2  501    0 -0.17659501256E+01 -0.15120065391E+01 -0.76521102791E+01  0.80976808620E+01  0.12700000000E+01 0. -1.
         -4    1    1    2    0  501  0.17659501256E+01  0.15120065391E+01 -0.87166482800E+01  0.91103019081E+01  0.12700000000E+01 0.  1.
<mgrwt>
<rscale>  0 0.26490835E+01</rscale>
<asrwt>0</asrwt>
<pdfrwt beam="1">0</pdfrwt>
<pdfrwt beam="2">0</pdfrwt>
<totfact> 0.22537421E+12</totfact>
</mgrwt>
</event>
<event>
 4    1  0.1750553E+006  0.2225791E+01  0.7546771E-02  0.2843337E+00
         22   -1    0    0    0    0  0.00000000000E+00  0.00000000000E+00  0.22999110076E+02  0.22999110076E+02  0.00000000000E+00 0. -1.
         22   -1    0    0    0    0 -0.00000000000E+00 -0.00000000000E+00 -0.43849084152E+00  0.43849084152E+00  0.00000000000E+00 0.  1.
          4    1    1    2  501    0 -0.57452471928E+00  0.17352717591E+01  0.19638993646E+02  0.19764721555E+02  0.12700000000E+01 0. -1.
         -4    1    1    2    0  501  0.57452471928E+00 -0.17352717591E+01  0.29216255889E+01  0.36728793627E+01  0.12700000000E+01 0.  1.
<mgrwt>
<rscale>  0 0.22257913E+01</rscale>
<asrwt>0</asrwt>
<pdfrwt beam="1">0</pdfrwt>
<pdfrwt beam="2">0</pdfrwt>
<totfact> 0.14488140E+12</totfact>
</mgrwt>
</event>
<event>
 4    1  0.1750553E+006  0.2837852E+01  0.7546771E-02  0.2576044E+00
         22   -1    0    0    0    0  0.00000000000E+00  0.00000000000E+00  0.43771222041E+00  0.43771222041E+00  0.00000000000E+00 0.  1.
         22   -1    0    0    0    0 -0.00000000000E+00 -0.00000000000E+00 -0.20045659636E+02  0.20045659636E+02  0.00000000000E+00 0. -1.
          4    1    1    2  501    0  0.25146671306E+01  0.34198489456E+00 -0.68684736994E+01  0.74316441926E+01  0.12700000000E+01 0.  1.
         -4    1    1    2    0  501 -0.25146671306E+01 -0.34198489456E+00 -0.12739473716E+02  0.13051727664E+02  0.12700000000E+01 0. -1.
<mgrwt>
<rscale>  0 0.28378521E+01</rscale>
<asrwt>0</asrwt>
<pdfrwt beam="1">0</pdfrwt>
<pdfrwt beam="2">0</pdfrwt>
<totfact> 0.17242687E+12</totfact>
</mgrwt>
</event>
<event>
 4    1  0.1750553E+006  0.2167582E+01  0.7546771E-02  0.2876109E+00
         22   -1    0    0    0    0  0.00000000000E+00  0.00000000000E+00  0.85551240849E-01  0.85551240849E-01  0.00000000000E+00 0.  1.
         22   -1    0    0    0    0 -0.00000000000E+00 -0.00000000000E+00 -0.64605543483E+02  0.64605543483E+02  0.00000000000E+00 0.  1.
          4    1    1    2  501    0 -0.17047490422E+00  0.17482704338E+01 -0.19735562218E+02  0.19854239529E+02  0.12700000000E+01 0.  1.
         -4    1    1    2    0  501  0.17047490422E+00 -0.17482704338E+01 -0.44784430024E+02  0.44836855195E+02  0.12700000000E+01 0.  1.
<mgrwt>
<rscale>  0 0.21675819E+01</rscale>
<asrwt>0</asrwt>
<pdfrwt beam="1">0</pdfrwt>
<pdfrwt beam="2">0</pdfrwt>
<totfact> 0.23495062E+12</totfact>
</mgrwt>
</event>
<event>
 4    1  0.1750553E+006  0.2119739E+01  0.7546771E-02  0.2904339E+00
         22   -1    0    0    0    0  0.00000000000E+00  0.00000000000E+00  0.15101910606E+02  0.15101910606E+02  0.00000000000E+00 0.  1.
         22   -1    0    0    0    0 -0.00000000000E+00 -0.00000000000E+00 -0.38219569298E+00  0.38219569298E+00  0.00000000000E+00 0.  1.
          4    1    1    2  501    0 -0.43667771037E+00 -0.16400326607E+01  0.11003729069E+02  0.11206040692E+02  0.12700000000E+01 0.  1.
         -4    1    1    2    0  501  0.43667771037E+00  0.16400326607E+01  0.37159858439E+01  0.42780656076E+01  0.12700000000E+01 0.  1.
<mgrwt>
<rscale>  0 0.21197393E+01</rscale>
<asrwt>0</asrwt>
<pdfrwt beam="1">0</pdfrwt>
<pdfrwt beam="2">0</pdfrwt>
<totfact> 0.28527216E+12</totfact>
</mgrwt>
</event>
<event>
 4    1  0.1750553E+006  0.2906156E+01  0.7546771E-02  0.2552694E+00
         22   -1    0    0    0    0  0.00000000000E+00  0.00000000000E+00  0.11176687449E+01  0.11176687449E+01  0.00000000000E+00 0.  1.
         22   -1    0    0    0    0 -0.00000000000E+00 -0.00000000000E+00 -0.80246073531E+01  0.80246073531E+01  0.00000000000E+00 0.  1.
          4    1    1    2  501    0  0.26138490712E+01  0.25226979919E-01 -0.23495122581E+01  0.37371046572E+01  0.12700000000E+01 0.  1.
         -4    1    1    2    0  501 -0.26138490712E+01 -0.25226979919E-01 -0.45574263501E+01  0.54051714407E+01  0.12700000000E+01 0.  1.
<mgrwt>
<rscale>  0 0.29061561E+01</rscale>
<asrwt>0</asrwt>
<pdfrwt beam="1">0</pdfrwt>
<pdfrwt beam="2">0</pdfrwt>
<totfact> 0.18221366E+12</totfact>
</mgrwt>
</event>
<event>
 4    1  0.1750553E+006  0.2039749E+01  0.7546771E-02  0.2954400E+00
         22   -1    0    0    0    0  0.00000000000E+00  0.00000000000E+00  0.23498344812E+01  0.23498344812E+01  0.00000000000E+00 0. -1.
         22   -1    0    0    0    0 -0.00000000000E+00 -0.00000000000E+00 -0.21397044998E+01  0.21397044998E+01  0.00000000000E+00 0. -1.
          4    1    1    2  501    0  0.12308869664E+01 -0.10161668882E+01  0.10374156897E+01  0.22884075647E+01  0.12700000000E+01 0. -1.
         -4    1    1    2    0  501 -0.12308869664E+01  0.10161668882E+01 -0.82728570826E+00  0.22011314163E+01  0.12700000000E+01 0. -1.
<mgrwt>
<rscale>  0 0.20397495E+01</rscale>
<asrwt>0</asrwt>
<pdfrwt beam="1">0</pdfrwt>
<pdfrwt beam="2">0</pdfrwt>
<totfact> 0.36746958E+12</totfact>
</mgrwt>
</event>
<event>
 4    1  0.1750553E+006  0.2803774E+01  0.7546771E-02  0.2588079E+00
         22   -1    0    0    0    0  0.00000000000E+00  0.00000000000E+00  0.18610100285E+00  0.18610100285E+00  0.00000000000E+00 0. -1.
         22   -1    0    0    0    0 -0.00000000000E+00 -0.00000000000E+00 -0.44005466531E+02  0.44005466531E+02  0.00000000000E+00 0.  1.
          4    1    1    2  501    0 -0.24431144210E+01  0.52862193922E+00 -0.26333786136E+02  0.26482625276E+02  0.12700000000E+01 0. -1.
         -4    1    1    2    0  501  0.24431144210E+01 -0.52862193922E+00 -0.17485579392E+02  0.17708942258E+02  0.12700000000E+01 0.  1.
<mgrwt>
<rscale>  0 0.28037741E+01</rscale>
<asrwt>0</asrwt>
<pdfrwt beam="1">0</pdfrwt>
<pdfrwt beam="2">0</pdfrwt>
<totfact> 0.16502609E+12</totfact>
</mgrwt>
</event>
<event>
 4    1  0.1750553E+006  0.3037280E+01  0.7546771E-02  0.2510529E+00
         22   -1    0    0    0    0  0.00000000000E+00  0.00000000000E+00  0.22855158668E+02  0.22855158668E+02  0.00000000000E+00 0. -1.
         22   -1    0    0    0    0 -0.00000000000E+00 -0.00000000000E+00 -0.45381549760E+00  0.45381549760E+00  0.00000000000E+00 0.  1.
          4    1    1    2  501    0  0.24521512310E+01 -0.12645644362E+01  0.15076234796E+02  0.15379139264E+02  0.12700000000E+01 0. -1.
         -4    1    1    2    0  501 -0.24521512310E+01  0.12645644362E+01  0.73251083751E+01  0.79298349024E+01  0.12700000000E+01 0.  1.
<mgrwt>
<rscale>  0 0.30372798E+01</rscale>
<asrwt>0</asrwt>
<pdfrwt beam="1">0</pdfrwt>
<pdfrwt beam="2">0</pdfrwt>
<totfact> 0.14048985E+12</totfact>
</mgrwt>
</event>
<event>
 4    1  0.1750553E+006  0.3258613E+01  0.7546771E-02  0.2446276E+00
         22   -1    0    0    0    0  0.00000000000E+00  0.00000000000E+00  0.20000695977E+01  0.20000695977E+01  0.00000000000E+00 0. -1.
         22   -1    0    0    0    0 -0.00000000000E+00 -0.00000000000E+00 -0.73881576776E+01  0.73881576776E+01  0.00000000000E+00 0. -1.
          4    1    1    2  501    0  0.17153602490E+01  0.24623555567E+01 -0.20392842116E+00  0.32649873618E+01  0.12700000000E+01 0. -1.
         -4    1    1    2    0  501 -0.17153602490E+01 -0.24623555567E+01 -0.51841596587E+01  0.61232399135E+01  0.12700000000E+01 0. -1.
<mgrwt>
<rscale>  0 0.32586125E+01</rscale>
<asrwt>0</asrwt>
<pdfrwt beam="1">0</pdfrwt>
<pdfrwt beam="2">0</pdfrwt>
<totfact> 0.10300023E+12</totfact>
</mgrwt>
</event>
<event>
 4    1  0.1750553E+006  0.2583652E+01  0.7546771E-02  0.2672761E+00
         22   -1    0    0    0    0  0.00000000000E+00  0.00000000000E+00  0.12154149092E+02  0.12154149092E+02  0.00000000000E+00 0. -1.
         22   -1    0    0    0    0 -0.00000000000E+00 -0.00000000000E+00 -0.55601340713E+01  0.55601340713E+01  0.00000000000E+00 0.  1.
          4    1    1    2  501    0  0.14772191957E+01  0.16971097949E+01  0.11705334412E+02  0.11987081042E+02  0.12700000000E+01 0. -1.
         -4    1    1    2    0  501 -0.14772191957E+01 -0.16971097949E+01 -0.51113193918E+01  0.57272021209E+01  0.12700000000E+01 0.  1.
<mgrwt>
<rscale>  0 0.25836521E+01</rscale>
<asrwt>0</asrwt>
<pdfrwt beam="1">0</pdfrwt>
<pdfrwt beam="2">0</pdfrwt>
<totfact> 0.17031265E+11</totfact>
</mgrwt>
</event>
<event>
 4    1  0.1750553E+006  0.2673806E+01  0.7546771E-02  0.2636534E+00
         22   -1    0    0    0    0  0.00000000000E+00  0.00000000000E+00  0.81712760148E+01  0.81712760148E+01  0.00000000000E+00 0.  1.
         22   -1    0    0    0    0 -0.00000000000E+00 -0.00000000000E+00 -0.14394212945E+01  0.14394212945E+01  0.00000000000E+00 0. -1.
          4    1    1    2  501    0 -0.23528509659E+01  0.20708575581E-01  0.63752052710E+01  0.69132104525E+01  0.12700000000E+01 0.  1.
         -4    1    1    2    0  501  0.23528509659E+01 -0.20708575581E-01  0.35664944927E+00  0.26974868568E+01  0.12700000000E+01 0. -1.
<mgrwt>
<rscale>  0 0.26738056E+01</rscale>
<asrwt>0</asrwt>
<pdfrwt beam="1">0</pdfrwt>
<pdfrwt beam="2">0</pdfrwt>
<totfact> 0.13338405E+12</totfact>
</mgrwt>
</event>
<event>
 4    1  0.1750553E+006  0.2719036E+01  0.7546771E-02  0.2619191E+00
         22   -1    0    0    0    0  0.00000000000E+00  0.00000000000E+00  0.61968777037E+01  0.61968777037E+01  0.00000000000E+00 0. -1.
         22   -1    0    0    0    0 -0.00000000000E+00 -0.00000000000E+00 -0.12060714025E+01  0.12060714025E+01  0.00000000000E+00 0. -1.
          4    1    1    2  501    0  0.23996851455E+01 -0.14754743663E+00  0.28800718326E+01  0.39608045653E+01  0.12700000000E+01 0. -1.
         -4    1    1    2    0  501 -0.23996851455E+01  0.14754743663E+00  0.21107344686E+01  0.34421445409E+01  0.12700000000E+01 0. -1.
<mgrwt>
<rscale>  0 0.27190364E+01</rscale>
<asrwt>0</asrwt>
<pdfrwt beam="1">0</pdfrwt>
<pdfrwt beam="2">0</pdfrwt>
<totfact> 0.22752459E+12</totfact>
</mgrwt>
</event>
<event>
 4    1  0.1750553E+006  0.2709890E+01  0.7546771E-02  0.2622655E+00
         22   -1    0    0    0    0  0.00000000000E+00  0.00000000000E+00  0.21569887073E+02  0.21569887073E+02  0.00000000000E+00 0.  1.
         22   -1    0    0    0    0 -0.00000000000E+00 -0.00000000000E+00 -0.46755486613E+00  0.46755486613E+00  0.00000000000E+00 0. -1.
          4    1    1    2  501    0 -0.11424266152E+01  0.21036795943E+01  0.16296204636E+02  0.16519981596E+02  0.12700000000E+01 0.  1.
         -4    1    1    2    0  501  0.11424266152E+01 -0.21036795943E+01  0.48061275714E+01  0.55174603433E+01  0.12700000000E+01 0. -1.
<mgrwt>
<rscale>  0 0.27098905E+01</rscale>
<asrwt>0</asrwt>
<pdfrwt beam="1">0</pdfrwt>
<pdfrwt beam="2">0</pdfrwt>
<totfact> 0.14606277E+12</totfact>
</mgrwt>
</event>
<event>
 4    1  0.1750553E+006  0.2687171E+01  0.7546771E-02  0.2631353E+00
         22   -1    0    0    0    0  0.00000000000E+00  0.00000000000E+00  0.42597798382E+01  0.42597798382E+01  0.00000000000E+00 0. -1.
         22   -1    0    0    0    0 -0.00000000000E+00 -0.00000000000E+00 -0.19948885053E+01  0.19948885053E+01  0.00000000000E+00 0. -1.
          4    1    1    2  501    0  0.21574443428E+01 -0.97643258700E+00  0.23447166149E+01  0.35663121980E+01  0.12700000000E+01 0. -1.
         -4    1    1    2    0  501 -0.21574443428E+01  0.97643258700E+00 -0.79825282056E-01  0.26883561455E+01  0.12700000000E+01 0. -1.
<mgrwt>
<rscale>  0 0.26871708E+01</rscale>
<asrwt>0</asrwt>
<pdfrwt beam="1">0</pdfrwt>
<pdfrwt beam="2">0</pdfrwt>
<totfact> 0.19873801E+12</totfact>
</mgrwt>
</event>
<event>
 4    1  0.1750553E+006  0.2145233E+01  0.7546771E-02  0.2889144E+00
         22   -1    0    0    0    0  0.00000000000E+00  0.00000000000E+00  0.37664434163E+01  0.37664434163E+01  0.00000000000E+00 0.  1.
         22   -1    0    0    0    0 -0.00000000000E+00 -0.00000000000E+00 -0.15657496074E+01  0.15657496074E+01  0.00000000000E+00 0. -1.
          4    1    1    2  501    0 -0.11629639727E+01 -0.12793122689E+01  0.23498323132E+01  0.31817820452E+01  0.12700000000E+01 0. -1.
         -4    1    1    2    0  501  0.11629639727E+01  0.12793122689E+01 -0.14913850428E+00  0.21504109785E+01  0.12700000000E+01 0. -1.
<mgrwt>
<rscale>  0 0.21452331E+01</rscale>
<asrwt>0</asrwt>
<pdfrwt beam="1">0</pdfrwt>
<pdfrwt beam="2">0</pdfrwt>
<totfact> 0.30381273E+12</totfact>
</mgrwt>
</event>
<event>
 4    1  0.1750553E+006  0.2002726E+01  0.7546771E-02  0.2978891E+00
         22   -1    0    0    0    0  0.00000000000E+00  0.00000000000E+00  0.28615712033E+01  0.28615712033E+01  0.00000000000E+00 0. -1.
         22   -1    0    0    0    0 -0.00000000000E+00 -0.00000000000E+00 -0.17717873077E+01  0.17717873077E+01  0.00000000000E+00 0.  1.
          4    1    1    2  501    0  0.13789019519E+01 -0.70472652196E+00  0.16037648795E+01  0.25657302766E+01  0.12700000000E+01 0.  1.
         -4    1    1    2    0  501 -0.13789019519E+01  0.70472652196E+00 -0.51398098387E+00  0.20676282344E+01  0.12700000000E+01 0.  1.
<mgrwt>
<rscale>  0 0.20027257E+01</rscale>
<asrwt>0</asrwt>
<pdfrwt beam="1">0</pdfrwt>
<pdfrwt beam="2">0</pdfrwt>
<totfact> 0.36340481E+12</totfact>
</mgrwt>
</event>
<event>
 4    1  0.1750553E+006  0.2039817E+01  0.7546771E-02  0.2954356E+00
         22   -1    0    0    0    0  0.00000000000E+00  0.00000000000E+00  0.66100871876E+01  0.66100871876E+01  0.00000000000E+00 0. -1.
         22   -1    0    0    0    0 -0.00000000000E+00 -0.00000000000E+00 -0.73944717681E+00  0.73944717681E+00  0.00000000000E+00 0.  1.
          4    1    1    2  501    0 -0.25385444466E+00 -0.15759154296E+01  0.43525082898E+01  0.48067847812E+01  0.12700000000E+01 0.  1.
         -4    1    1    2    0  501  0.25385444466E+00  0.15759154296E+01  0.15181317209E+01  0.25427495831E+01  0.12700000000E+01 0. -1.
<mgrwt>
<rscale>  0 0.20398165E+01</rscale>
<asrwt>0</asrwt>
<pdfrwt beam="1">0</pdfrwt>
<pdfrwt beam="2">0</pdfrwt>
<totfact> 0.36808270E+12</totfact>
</mgrwt>
</event>
<event>
 4    1  0.1750553E+006  0.2750381E+01  0.7546771E-02  0.2607479E+00
         22   -1    0    0    0    0  0.00000000000E+00  0.00000000000E+00  0.42701837551E+00  0.42701837551E+00  0.00000000000E+00 0. -1.
         22   -1    0    0    0    0 -0.00000000000E+00 -0.00000000000E+00 -0.17932878507E+02  0.17932878507E+02  0.00000000000E+00 0.  1.
          4    1    1    2  501    0  0.10359153950E+01  0.22087493547E+01 -0.97649910549E+01  0.10144931972E+02  0.12700000000E+01 0.  1.
         -4    1    1    2    0  501 -0.10359153950E+01 -0.22087493547E+01 -0.77408690769E+01  0.82149649106E+01  0.12700000000E+01 0. -1.
<mgrwt>
<rscale>  0 0.27503808E+01</rscale>
<asrwt>0</asrwt>
<pdfrwt beam="1">0</pdfrwt>
<pdfrwt beam="2">0</pdfrwt>
<totfact> 0.20364348E+12</totfact>
</mgrwt>
</event>
<event>
 4    1  0.1750553E+006  0.2056291E+01  0.7546771E-02  0.2943737E+00
         22   -1    0    0    0    0  0.00000000000E+00  0.00000000000E+00  0.47859234093E+01  0.47859234093E+01  0.00000000000E+00 0. -1.
         22   -1    0    0    0    0 -0.00000000000E+00 -0.00000000000E+00 -0.11864105813E+01  0.11864105813E+01  0.00000000000E+00 0.  1.
          4    1    1    2  501    0 -0.47240064282E+00 -0.15466967737E+01  0.33086489472E+01  0.38955732739E+01  0.12700000000E+01 0. -1.
         -4    1    1    2    0  501  0.47240064282E+00  0.15466967737E+01  0.29086388087E+00  0.20767607166E+01  0.12700000000E+01 0.  1.
<mgrwt>
<rscale>  0 0.20562911E+01</rscale>
<asrwt>0</asrwt>
<pdfrwt beam="1">0</pdfrwt>
<pdfrwt beam="2">0</pdfrwt>
<totfact> 0.31503241E+12</totfact>
</mgrwt>
</event>
<event>
 4    1  0.1750553E+006  0.2103799E+01  0.7546771E-02  0.2914020E+00
         22   -1    0    0    0    0  0.00000000000E+00  0.00000000000E+00  0.32201782996E+02  0.32201782996E+02  0.00000000000E+00 0.  1.
         22   -1    0    0    0    0 -0.00000000000E+00 -0.00000000000E+00 -0.13918537812E+00  0.13918537812E+00  0.00000000000E+00 0.  1.
          4    1    1    2  501    0  0.16703672698E+01  0.15147367446E+00  0.17839553275E+02  0.17963174334E+02  0.12700000000E+01 0.  1.
         -4    1    1    2    0  501 -0.16703672698E+01 -0.15147367446E+00  0.14223044343E+02  0.14377794041E+02  0.12700000000E+01 0.  1.
<mgrwt>
<rscale>  0 0.21037992E+01</rscale>
<asrwt>0</asrwt>
<pdfrwt beam="1">0</pdfrwt>
<pdfrwt beam="2">0</pdfrwt>
<totfact> 0.34136906E+12</totfact>
</mgrwt>
</event>
<event>
 4    1  0.1750553E+006  0.2959769E+01  0.7546771E-02  0.2535048E+00
         22   -1    0    0    0    0  0.00000000000E+00  0.00000000000E+00  0.79135138996E+00  0.79135138996E+00  0.00000000000E+00 0.  1.
         22   -1    0    0    0    0 -0.00000000000E+00 -0.00000000000E+00 -0.29115528219E+02  0.29115528219E+02  0.00000000000E+00 0.  1.
          4    1    1    2  501    0 -0.26496243776E+01  0.35612052715E+00 -0.23897156267E+01  0.38040730736E+01  0.12700000000E+01 0.  1.
         -4    1    1    2    0  501  0.26496243776E+01 -0.35612052715E+00 -0.25934461202E+02  0.26102806535E+02  0.12700000000E+01 0.  1.
<mgrwt>
<rscale>  0 0.29597688E+01</rscale>
<asrwt>0</asrwt>
<pdfrwt beam="1">0</pdfrwt>
<pdfrwt beam="2">0</pdfrwt>
<totfact> 0.55122091E+11</totfact>
</mgrwt>
</event>
<event>
 4    1  0.1750553E+006  0.3130876E+01  0.7546771E-02  0.2482373E+00
         22   -1    0    0    0    0  0.00000000000E+00  0.00000000000E+00  0.16838221263E+01  0.16838221263E+01  0.00000000000E+00 0.  1.
         22   -1    0    0    0    0 -0.00000000000E+00 -0.00000000000E+00 -0.70982868167E+01  0.70982868167E+01  0.00000000000E+00 0. -1.
          4    1    1    2  501    0  0.25722195832E+01  0.12542621358E+01 -0.45695320434E+01  0.55392246917E+01  0.12700000000E+01 0. -1.
         -4    1    1    2    0  501 -0.25722195832E+01 -0.12542621358E+01 -0.84493264705E+00  0.32428842513E+01  0.12700000000E+01 0.  1.
<mgrwt>
<rscale>  0 0.31308764E+01</rscale>
<asrwt>0</asrwt>
<pdfrwt beam="1">0</pdfrwt>
<pdfrwt beam="2">0</pdfrwt>
<totfact> 0.13182995E+12</totfact>
</mgrwt>
</event>
<event>
 4    1  0.1750553E+006  0.2527810E+01  0.7546771E-02  0.2696395E+00
         22   -1    0    0    0    0  0.00000000000E+00  0.00000000000E+00  0.26881971053E+02  0.26881971053E+02  0.00000000000E+00 0.  1.
         22   -1    0    0    0    0 -0.00000000000E+00 -0.00000000000E+00 -0.25264527390E+00  0.25264527390E+00  0.00000000000E+00 0. -1.
          4    1    1    2  501    0  0.17411126895E+01 -0.13211538472E+01  0.16614578345E+02  0.16805773843E+02  0.12700000000E+01 0.  1.
         -4    1    1    2    0  501 -0.17411126895E+01  0.13211538472E+01  0.10014747434E+02  0.10328842484E+02  0.12700000000E+01 0. -1.
<mgrwt>
<rscale>  0 0.25278095E+01</rscale>
<asrwt>0</asrwt>
<pdfrwt beam="1">0</pdfrwt>
<pdfrwt beam="2">0</pdfrwt>
<totfact> 0.22103280E+12</totfact>
</mgrwt>
</event>
<event>
 4    1  0.1750553E+006  0.2139940E+01  0.7546771E-02  0.2892270E+00
         22   -1    0    0    0    0  0.00000000000E+00  0.00000000000E+00  0.23314605621E+00  0.23314605621E+00  0.00000000000E+00 0.  1.
         22   -1    0    0    0    0 -0.00000000000E+00 -0.00000000000E+00 -0.22880061024E+02  0.22880061024E+02  0.00000000000E+00 0. -1.
          4    1    1    2  501    0  0.16868877158E+01  0.34763902663E+00 -0.69755901033E+01  0.72964512160E+01  0.12700000000E+01 0.  1.
         -4    1    1    2    0  501 -0.16868877158E+01 -0.34763902663E+00 -0.15671324864E+02  0.15816755864E+02  0.12700000000E+01 0. -1.
<mgrwt>
<rscale>  0 0.21399400E+01</rscale>
<asrwt>0</asrwt>
<pdfrwt beam="1">0</pdfrwt>
<pdfrwt beam="2">0</pdfrwt>
<totfact> 0.29627922E+12</totfact>
</mgrwt>
</event>
<event>
 4    1  0.1750553E+006  0.3352271E+01  0.7546771E-02  0.2421358E+00
         22   -1    0    0    0    0  0.00000000000E+00  0.00000000000E+00  0.13686586542E+02  0.13686586542E+02  0.00000000000E+00 0. -1.
         22   -1    0    0    0    0 -0.00000000000E+00 -0.00000000000E+00 -0.90453828678E+00  0.90453828678E+00  0.00000000000E+00 0.  1.
          4    1    1    2  501    0 -0.24946193201E+01 -0.18443681356E+01  0.41749104754E+01  0.53542130000E+01  0.12700000000E+01 0.  1.
         -4    1    1    2    0  501  0.24946193201E+01  0.18443681356E+01  0.86071377794E+01  0.92369118284E+01  0.12700000000E+01 0. -1.
<mgrwt>
<rscale>  0 0.33522708E+01</rscale>
<asrwt>0</asrwt>
<pdfrwt beam="1">0</pdfrwt>
<pdfrwt beam="2">0</pdfrwt>
<totfact> 0.12139805E+12</totfact>
</mgrwt>
</event>
<event>
 4    1  0.1750553E+006  0.3042542E+01  0.7546771E-02  0.2508905E+00
         22   -1    0    0    0    0  0.00000000000E+00  0.00000000000E+00  0.41903445989E+02  0.41903445989E+02  0.00000000000E+00 0. -1.
         22   -1    0    0    0    0 -0.00000000000E+00 -0.00000000000E+00 -0.20762527489E+01  0.20762527489E+01  0.00000000000E+00 0.  1.
          4    1    1    2  501    0  0.30127532208E+00  0.27483444411E+01  0.40700688449E+02  0.40814251240E+02  0.12700000000E+01 0. -1.
         -4    1    1    2    0  501 -0.30127532208E+00 -0.27483444411E+01 -0.87349520899E+00  0.31654474986E+01  0.12700000000E+01 0.  1.
<mgrwt>
<rscale>  0 0.30425424E+01</rscale>
<asrwt>0</asrwt>
<pdfrwt beam="1">0</pdfrwt>
<pdfrwt beam="2">0</pdfrwt>
<totfact> 0.11408603E+11</totfact>
</mgrwt>
</event>
<event>
 4    1  0.1750553E+006  0.3570230E+01  0.7546771E-02  0.2367836E+00
         22   -1    0    0    0    0  0.00000000000E+00  0.00000000000E+00  0.51949741614E+00  0.51949741614E+00  0.00000000000E+00 0. -1.
         22   -1    0    0    0    0 -0.00000000000E+00 -0.00000000000E+00 -0.25890038470E+02  0.25890038470E+02  0.00000000000E+00 0.  1.
          4    1    1    2  501    0 -0.26297102714E+01 -0.20538419226E+01 -0.96657892912E+01  0.10304078094E+02  0.12700000000E+01 0. -1.
         -4    1    1    2    0  501  0.26297102714E+01  0.20538419226E+01 -0.15704751763E+02  0.16105457792E+02  0.12700000000E+01 0.  1.
<mgrwt>
<rscale>  0 0.35702301E+01</rscale>
<asrwt>0</asrwt>
<pdfrwt beam="1">0</pdfrwt>
<pdfrwt beam="2">0</pdfrwt>
<totfact> 0.10308212E+12</totfact>
</mgrwt>
</event>
<event>
 4    1  0.1750553E+006  0.5021603E+01  0.7546771E-02  0.2120434E+00
         22   -1    0    0    0    0  0.00000000000E+00  0.00000000000E+00  0.11137572594E+03  0.11137572594E+03  0.00000000000E+00 0.  1.
         22   -1    0    0    0    0 -0.00000000000E+00 -0.00000000000E+00 -0.27494523817E+00  0.27494523817E+00  0.00000000000E+00 0. -1.
          4    1    1    2  501    0 -0.17765834617E+01  0.45218740766E+01  0.79005647789E+02  0.79165073590E+02  0.12700000000E+01 0. -1.
         -4    1    1    2    0  501  0.17765834617E+01 -0.45218740766E+01  0.32095132909E+02  0.32485597584E+02  0.12700000000E+01 0.  1.
<mgrwt>
<rscale>  0 0.50216027E+01</rscale>
<asrwt>0</asrwt>
<pdfrwt beam="1">0</pdfrwt>
<pdfrwt beam="2">0</pdfrwt>
<totfact> 0.30182151E+11</totfact>
</mgrwt>
</event>
<event>
 4    1  0.1750553E+006  0.2027650E+01  0.7546771E-02  0.2962308E+00
         22   -1    0    0    0    0  0.00000000000E+00  0.00000000000E+00  0.20315122545E+00  0.20315122545E+00  0.00000000000E+00 0.  1.
         22   -1    0    0    0    0 -0.00000000000E+00 -0.00000000000E+00 -0.21079307471E+02  0.21079307471E+02  0.00000000000E+00 0. -1.
          4    1    1    2  501    0  0.14161340299E+01  0.70215958998E+00 -0.83121197643E+01  0.85558575641E+01  0.12700000000E+01 0.  1.
         -4    1    1    2    0  501 -0.14161340299E+01 -0.70215958998E+00 -0.12564036481E+02  0.12726601133E+02  0.12700000000E+01 0. -1.
<mgrwt>
<rscale>  0 0.20276498E+01</rscale>
<asrwt>0</asrwt>
<pdfrwt beam="1">0</pdfrwt>
<pdfrwt beam="2">0</pdfrwt>
<totfact> 0.38289111E+12</totfact>
</mgrwt>
</event>
<event>
 4    1  0.1750553E+006  0.2588919E+01  0.7546771E-02  0.2670581E+00
         22   -1    0    0    0    0  0.00000000000E+00  0.00000000000E+00  0.31027897629E+02  0.31027897629E+02  0.00000000000E+00 0.  1.
         22   -1    0    0    0    0 -0.00000000000E+00 -0.00000000000E+00 -0.27845081391E+00  0.27845081391E+00  0.00000000000E+00 0. -1.
          4    1    1    2  501    0 -0.10201426506E+01 -0.20121899139E+01  0.22786872877E+02  0.22933470623E+02  0.12700000000E+01 0.  1.
         -4    1    1    2    0  501  0.10201426506E+01  0.20121899139E+01  0.79625739382E+01  0.83728778206E+01  0.12700000000E+01 0. -1.
<mgrwt>
<rscale>  0 0.25889186E+01</rscale>
<asrwt>0</asrwt>
<pdfrwt beam="1">0</pdfrwt>
<pdfrwt beam="2">0</pdfrwt>
<totfact> 0.16518307E+12</totfact>
</mgrwt>
</event>
<event>
 4    1  0.1750553E+006  0.2559493E+01  0.7546771E-02  0.2682869E+00
         22   -1    0    0    0    0  0.00000000000E+00  0.00000000000E+00  0.63605394814E+00  0.63605394814E+00  0.00000000000E+00 0. -1.
         22   -1    0    0    0    0 -0.00000000000E+00 -0.00000000000E+00 -0.10356038310E+02  0.10356038310E+02  0.00000000000E+00 0.  1.
          4    1    1    2  501    0 -0.20212318110E+01  0.92343183599E+00 -0.52662723605E+01  0.58553077600E+01  0.12700000000E+01 0. -1.
         -4    1    1    2    0  501  0.20212318110E+01 -0.92343183599E+00 -0.44537120017E+01  0.51367844984E+01  0.12700000000E+01 0.  1.
<mgrwt>
<rscale>  0 0.25594930E+01</rscale>
<asrwt>0</asrwt>
<pdfrwt beam="1">0</pdfrwt>
<pdfrwt beam="2">0</pdfrwt>
<totfact> 0.25448024E+12</totfact>
</mgrwt>
</event>
<event>
 4    1  0.1750553E+006  0.3119345E+01  0.7546771E-02  0.2485760E+00
         22   -1    0    0    0    0  0.00000000000E+00  0.00000000000E+00  0.13241617307E+02  0.13241617307E+02  0.00000000000E+00 0. -1.
         22   -1    0    0    0    0 -0.00000000000E+00 -0.00000000000E+00 -0.91210464845E+00  0.91210464845E+00  0.00000000000E+00 0.  1.
          4    1    1    2  501    0 -0.26569890884E+01 -0.10285052401E+01  0.92846789953E+01  0.97946709026E+01  0.12700000000E+01 0.  1.
         -4    1    1    2    0  501  0.26569890884E+01  0.10285052401E+01  0.30448336635E+01  0.43590510531E+01  0.12700000000E+01 0. -1.
<mgrwt>
<rscale>  0 0.31193451E+01</rscale>
<asrwt>0</asrwt>
<pdfrwt beam="1">0</pdfrwt>
<pdfrwt beam="2">0</pdfrwt>
<totfact> 0.12521893E+12</totfact>
</mgrwt>
</event>
<event>
 4    1  0.1750553E+006  0.3801818E+01  0.7546771E-02  0.2316857E+00
         22   -1    0    0    0    0  0.00000000000E+00  0.00000000000E+00  0.11157382855E+02  0.11157382855E+02  0.00000000000E+00 0. -1.
         22   -1    0    0    0    0 -0.00000000000E+00 -0.00000000000E+00 -0.14039361302E+01  0.14039361302E+01  0.00000000000E+00 0. -1.
          4    1    1    2  501    0  0.12728536518E-01  0.35834003067E+01  0.66226291601E+01  0.76362973204E+01  0.12700000000E+01 0. -1.
         -4    1    1    2    0  501 -0.12728536518E-01 -0.35834003067E+01  0.31308175646E+01  0.49250216646E+01  0.12700000000E+01 0. -1.
<mgrwt>
<rscale>  0 0.38018180E+01</rscale>
<asrwt>0</asrwt>
<pdfrwt beam="1">0</pdfrwt>
<pdfrwt beam="2">0</pdfrwt>
<totfact> 0.94196879E+11</totfact>
</mgrwt>
</event>
<event>
 4    1  0.1750553E+006  0.2242680E+01  0.7546771E-02  0.2834134E+00
         22   -1    0    0    0    0  0.00000000000E+00  0.00000000000E+00  0.15403007958E+02  0.15403007958E+02  0.00000000000E+00 0.  1.
         22   -1    0    0    0    0 -0.00000000000E+00 -0.00000000000E+00 -0.57770013915E+00  0.57770013915E+00  0.00000000000E+00 0. -1.
          4    1    1    2  501    0 -0.13380320078E+01 -0.12752972596E+01  0.12681250441E+02  0.12878032672E+02  0.12700000000E+01 0.  1.
         -4    1    1    2    0  501  0.13380320078E+01  0.12752972596E+01  0.21440573778E+01  0.31026754251E+01  0.12700000000E+01 0. -1.
<mgrwt>
<rscale>  0 0.22426798E+01</rscale>
<asrwt>0</asrwt>
<pdfrwt beam="1">0</pdfrwt>
<pdfrwt beam="2">0</pdfrwt>
<totfact> 0.17469787E+12</totfact>
</mgrwt>
</event>
<event>
 4    1  0.1750553E+006  0.3209356E+01  0.7546771E-02  0.2459893E+00
         22   -1    0    0    0    0  0.00000000000E+00  0.00000000000E+00  0.26341132606E+01  0.26341132606E+01  0.00000000000E+00 0.  1.
         22   -1    0    0    0    0 -0.00000000000E+00 -0.00000000000E+00 -0.40285973966E+01  0.40285973966E+01  0.00000000000E+00 0. -1.
          4    1    1    2  501    0  0.18883301448E+01  0.22630237187E+01 -0.12619077394E+00  0.32118361102E+01  0.12700000000E+01 0. -1.
         -4    1    1    2    0  501 -0.18883301448E+01 -0.22630237187E+01 -0.12682933621E+01  0.34508745471E+01  0.12700000000E+01 0.  1.
<mgrwt>
<rscale>  0 0.32093562E+01</rscale>
<asrwt>0</asrwt>
<pdfrwt beam="1">0</pdfrwt>
<pdfrwt beam="2">0</pdfrwt>
<totfact> 0.15370438E+12</totfact>
</mgrwt>
</event>
<event>
 4    1  0.1750553E+006  0.2102496E+01  0.7546771E-02  0.2914817E+00
         22   -1    0    0    0    0  0.00000000000E+00  0.00000000000E+00  0.17934223499E+02  0.17934223499E+02  0.00000000000E+00 0.  1.
         22   -1    0    0    0    0 -0.00000000000E+00 -0.00000000000E+00 -0.24804967385E+00  0.24804967385E+00  0.00000000000E+00 0.  1.
          4    1    1    2  501    0  0.82499094493E+00  0.14584170046E+01  0.95654715836E+01  0.97938111497E+01  0.12700000000E+01 0.  1.
         -4    1    1    2    0  501 -0.82499094493E+00 -0.14584170046E+01  0.81207022416E+01  0.83884620232E+01  0.12700000000E+01 0.  1.
<mgrwt>
<rscale>  0 0.21024962E+01</rscale>
<asrwt>0</asrwt>
<pdfrwt beam="1">0</pdfrwt>
<pdfrwt beam="2">0</pdfrwt>
<totfact> 0.37462696E+12</totfact>
</mgrwt>
</event>
<event>
 4    1  0.1750553E+006  0.2304716E+01  0.7546771E-02  0.2801432E+00
         22   -1    0    0    0    0  0.00000000000E+00  0.00000000000E+00  0.12295683330E+01  0.12295683330E+01  0.00000000000E+00 0.  1.
         22   -1    0    0    0    0 -0.00000000000E+00 -0.00000000000E+00 -0.45804577181E+01  0.45804577181E+01  0.00000000000E+00 0. -1.
          4    1    1    2  501    0 -0.13481832649E+01 -0.13715749891E+01 -0.98269676925E+00  0.25054758045E+01  0.12700000000E+01 0.  1.
         -4    1    1    2    0  501  0.13481832649E+01  0.13715749891E+01 -0.23681926158E+01  0.33045502466E+01  0.12700000000E+01 0. -1.
<mgrwt>
<rscale>  0 0.23047160E+01</rscale>
<asrwt>0</asrwt>
<pdfrwt beam="1">0</pdfrwt>
<pdfrwt beam="2">0</pdfrwt>
<totfact> 0.31850715E+12</totfact>
</mgrwt>
</event>
<event>
 4    1  0.1750553E+006  0.2037002E+01  0.7546771E-02  0.2956188E+00
         22   -1    0    0    0    0  0.00000000000E+00  0.00000000000E+00  0.40875994420E+01  0.40875994420E+01  0.00000000000E+00 0.  1.
         22   -1    0    0    0    0 -0.00000000000E+00 -0.00000000000E+00 -0.10410104613E+01  0.10410104613E+01  0.00000000000E+00 0. -1.
          4    1    1    2  501    0 -0.34392138935E-01 -0.15922601840E+01  0.19277500040E+01  0.28045668812E+01  0.12700000000E+01 0.  1.
         -4    1    1    2    0  501  0.34392138935E-01  0.15922601840E+01  0.11188389767E+01  0.23240430221E+01  0.12700000000E+01 0.  1.
<mgrwt>
<rscale>  0 0.20370015E+01</rscale>
<asrwt>0</asrwt>
<pdfrwt beam="1">0</pdfrwt>
<pdfrwt beam="2">0</pdfrwt>
<totfact> 0.44069712E+12</totfact>
</mgrwt>
</event>
<event>
 4    1  0.1750553E+006  0.2177244E+01  0.7546771E-02  0.2870553E+00
         22   -1    0    0    0    0  0.00000000000E+00  0.00000000000E+00  0.19783868768E+02  0.19783868768E+02  0.00000000000E+00 0.  1.
         22   -1    0    0    0    0 -0.00000000000E+00 -0.00000000000E+00 -0.24814045729E+00  0.24814045729E+00  0.00000000000E+00 0.  1.
          4    1    1    2  501    0 -0.78454506194E+00 -0.15849222385E+01  0.11625077995E+02  0.11827207102E+02  0.12700000000E+01 0.  1.
         -4    1    1    2    0  501  0.78454506194E+00  0.15849222385E+01  0.79106503159E+01  0.82048021229E+01  0.12700000000E+01 0.  1.
<mgrwt>
<rscale>  0 0.21772435E+01</rscale>
<asrwt>0</asrwt>
<pdfrwt beam="1">0</pdfrwt>
<pdfrwt beam="2">0</pdfrwt>
<totfact> 0.33145567E+12</totfact>
</mgrwt>
</event>
<event>
 4    1  0.1750553E+006  0.2195939E+01  0.7546771E-02  0.2859936E+00
         22   -1    0    0    0    0  0.00000000000E+00  0.00000000000E+00  0.10214458961E+01  0.10214458961E+01  0.00000000000E+00 0. -1.
         22   -1    0    0    0    0 -0.00000000000E+00 -0.00000000000E+00 -0.47751639141E+01  0.47751639141E+01  0.00000000000E+00 0.  1.
          4    1    1    2  501    0  0.66751545286E+00 -0.16624292054E+01 -0.15679073345E+01  0.26982366746E+01  0.12700000000E+01 0.  1.
         -4    1    1    2    0  501 -0.66751545286E+00  0.16624292054E+01 -0.21858106835E+01  0.30983731355E+01  0.12700000000E+01 0. -1.
<mgrwt>
<rscale>  0 0.21959389E+01</rscale>
<asrwt>0</asrwt>
<pdfrwt beam="1">0</pdfrwt>
<pdfrwt beam="2">0</pdfrwt>
<totfact> 0.37489065E+12</totfact>
</mgrwt>
</event>
<event>
 4    1  0.1750553E+006  0.2205051E+01  0.7546771E-02  0.2854823E+00
         22   -1    0    0    0    0  0.00000000000E+00  0.00000000000E+00  0.47483424824E+02  0.47483424824E+02  0.00000000000E+00 0.  1.
         22   -1    0    0    0    0 -0.00000000000E+00 -0.00000000000E+00 -0.12184541316E+00  0.12184541316E+00  0.00000000000E+00 0.  1.
          4    1    1    2  501    0 -0.13617567919E+01 -0.11810880274E+01  0.33189931279E+02  0.33263099507E+02  0.12700000000E+01 0.  1.
         -4    1    1    2    0  501  0.13617567919E+01  0.11810880274E+01  0.14171648132E+02  0.14342170731E+02  0.12700000000E+01 0.  1.
<mgrwt>
<rscale>  0 0.22050511E+01</rscale>
<asrwt>0</asrwt>
<pdfrwt beam="1">0</pdfrwt>
<pdfrwt beam="2">0</pdfrwt>
<totfact> 0.23920384E+12</totfact>
</mgrwt>
</event>
<event>
 4    1  0.1750553E+006  0.2162712E+01  0.7546771E-02  0.2878927E+00
         22   -1    0    0    0    0  0.00000000000E+00  0.00000000000E+00  0.27889264975E+02  0.27889264975E+02  0.00000000000E+00 0.  1.
         22   -1    0    0    0    0 -0.00000000000E+00 -0.00000000000E+00 -0.17259545130E+00  0.17259545130E+00  0.00000000000E+00 0. -1.
          4    1    1    2  501    0  0.14745312883E+01 -0.94349404237E+00  0.16218815110E+02  0.16362374128E+02  0.12700000000E+01 0. -1.
         -4    1    1    2    0  501 -0.14745312883E+01  0.94349404237E+00  0.11497854414E+02  0.11699486298E+02  0.12700000000E+01 0.  1.
<mgrwt>
<rscale>  0 0.21627121E+01</rscale>
<asrwt>0</asrwt>
<pdfrwt beam="1">0</pdfrwt>
<pdfrwt beam="2">0</pdfrwt>
<totfact> 0.32276219E+12</totfact>
</mgrwt>
</event>
<event>
 4    1  0.1750553E+006  0.2387899E+01  0.7546771E-02  0.2760114E+00
         22   -1    0    0    0    0  0.00000000000E+00  0.00000000000E+00  0.28592056389E+01  0.28592056389E+01  0.00000000000E+00 0.  1.
         22   -1    0    0    0    0 -0.00000000000E+00 -0.00000000000E+00 -0.25691175311E+01  0.25691175311E+01  0.00000000000E+00 0. -1.
          4    1    1    2  501    0  0.18216347118E+01 -0.87795678054E+00  0.14288981614E+01  0.27827703979E+01  0.12700000000E+01 0.  1.
         -4    1    1    2    0  501 -0.18216347118E+01  0.87795678054E+00 -0.11388100535E+01  0.26455527721E+01  0.12700000000E+01 0. -1.
<mgrwt>
<rscale>  0 0.23878989E+01</rscale>
<asrwt>0</asrwt>
<pdfrwt beam="1">0</pdfrwt>
<pdfrwt beam="2">0</pdfrwt>
<totfact> 0.23648069E+12</totfact>
</mgrwt>
</event>
<event>
 4    1  0.1750553E+006  0.2545178E+01  0.7546771E-02  0.2688942E+00
         22   -1    0    0    0    0  0.00000000000E+00  0.00000000000E+00  0.63242477165E+00  0.63242477165E+00  0.00000000000E+00 0. -1.
         22   -1    0    0    0    0 -0.00000000000E+00 -0.00000000000E+00 -0.11752361418E+02  0.11752361418E+02  0.00000000000E+00 0.  1.
          4    1    1    2  501    0 -0.17468151731E+00  0.21987534527E+01 -0.77791445309E+01  0.81849263901E+01  0.12700000000E+01 0. -1.
         -4    1    1    2    0  501  0.17468151731E+00 -0.21987534527E+01 -0.33407921158E+01  0.41998597999E+01  0.12700000000E+01 0. -1.
<mgrwt>
<rscale>  0 0.25451779E+01</rscale>
<asrwt>0</asrwt>
<pdfrwt beam="1">0</pdfrwt>
<pdfrwt beam="2">0</pdfrwt>
<totfact> 0.21963822E+12</totfact>
</mgrwt>
</event>
<event>
 4    1  0.1750553E+006  0.2549141E+01  0.7546771E-02  0.2687254E+00
         22   -1    0    0    0    0  0.00000000000E+00  0.00000000000E+00  0.20904578778E+02  0.20904578778E+02  0.00000000000E+00 0.  1.
         22   -1    0    0    0    0 -0.00000000000E+00 -0.00000000000E+00 -0.32078870222E+00  0.32078870222E+00  0.00000000000E+00 0.  1.
          4    1    1    2  501    0 -0.13534524380E+01 -0.17473942251E+01  0.12160217488E+02  0.12424532564E+02  0.12700000000E+01 0.  1.
         -4    1    1    2    0  501  0.13534524380E+01  0.17473942251E+01  0.84235725880E+01  0.88008349164E+01  0.12700000000E+01 0.  1.
<mgrwt>
<rscale>  0 0.25491410E+01</rscale>
<asrwt>0</asrwt>
<pdfrwt beam="1">0</pdfrwt>
<pdfrwt beam="2">0</pdfrwt>
<totfact> 0.23208107E+12</totfact>
</mgrwt>
</event>
<event>
 4    1  0.1750553E+006  0.3355171E+01  0.7546771E-02  0.2420606E+00
         22   -1    0    0    0    0  0.00000000000E+00  0.00000000000E+00  0.66239940403E+02  0.66239940403E+02  0.00000000000E+00 0. -1.
         22   -1    0    0    0    0 -0.00000000000E+00 -0.00000000000E+00 -0.19574056970E+00  0.19574056970E+00  0.00000000000E+00 0. -1.
          4    1    1    2  501    0 -0.47760112965E+00 -0.30685780087E+01  0.45080788545E+02  0.45205471679E+02  0.12700000000E+01 0. -1.
         -4    1    1    2    0  501  0.47760112965E+00  0.30685780087E+01  0.20963411288E+02  0.21230209294E+02  0.12700000000E+01 0. -1.
<mgrwt>
<rscale>  0 0.33551712E+01</rscale>
<asrwt>0</asrwt>
<pdfrwt beam="1">0</pdfrwt>
<pdfrwt beam="2">0</pdfrwt>
<totfact> 0.90648163E+11</totfact>
</mgrwt>
</event>
<event>
 4    1  0.1750553E+006  0.2110342E+01  0.7546771E-02  0.2910029E+00
         22   -1    0    0    0    0  0.00000000000E+00  0.00000000000E+00  0.16802804712E+02  0.16802804712E+02  0.00000000000E+00 0. -1.
         22   -1    0    0    0    0 -0.00000000000E+00 -0.00000000000E+00 -0.33145758438E+00  0.33145758438E+00  0.00000000000E+00 0.  1.
          4    1    1    2  501    0  0.16612955136E+01 -0.28414674933E+00  0.12070434544E+02  0.12253527339E+02  0.12700000000E+01 0. -1.
         -4    1    1    2    0  501 -0.16612955136E+01  0.28414674933E+00  0.44009125834E+01  0.48807349575E+01  0.12700000000E+01 0. -1.
<mgrwt>
<rscale>  0 0.21103417E+01</rscale>
<asrwt>0</asrwt>
<pdfrwt beam="1">0</pdfrwt>
<pdfrwt beam="2">0</pdfrwt>
<totfact> 0.29348417E+12</totfact>
</mgrwt>
</event>
<event>
 4    1  0.1750553E+006  0.2211985E+01  0.7546771E-02  0.2850960E+00
         22   -1    0    0    0    0  0.00000000000E+00  0.00000000000E+00  0.53098317553E+00  0.53098317553E+00  0.00000000000E+00 0. -1.
         22   -1    0    0    0    0 -0.00000000000E+00 -0.00000000000E+00 -0.10045106699E+02  0.10045106699E+02  0.00000000000E+00 0.  1.
          4    1    1    2  501    0  0.16107931726E+01 -0.82784363578E+00 -0.62774306322E+01  0.66557505266E+01  0.12700000000E+01 0.  1.
         -4    1    1    2    0  501 -0.16107931726E+01  0.82784363578E+00 -0.32366928910E+01  0.39203393477E+01  0.12700000000E+01 0.  1.
<mgrwt>
<rscale>  0 0.22119855E+01</rscale>
<asrwt>0</asrwt>
<pdfrwt beam="1">0</pdfrwt>
<pdfrwt beam="2">0</pdfrwt>
<totfact> 0.32391240E+12</totfact>
</mgrwt>
</event>
<event>
 4    1  0.1750553E+006  0.2860720E+01  0.7546771E-02  0.2568114E+00
         22   -1    0    0    0    0  0.00000000000E+00  0.00000000000E+00  0.14392696465E+01  0.14392696465E+01  0.00000000000E+00 0. -1.
         22   -1    0    0    0    0 -0.00000000000E+00 -0.00000000000E+00 -0.10642316467E+02  0.10642316467E+02  0.00000000000E+00 0. -1.
          4    1    1    2  501    0 -0.14065503252E+01  0.21429969629E+01 -0.47908291313E+00  0.29005586079E+01  0.12700000000E+01 0. -1.
         -4    1    1    2    0  501  0.14065503252E+01 -0.21429969629E+01 -0.87239639078E+01  0.91810275059E+01  0.12700000000E+01 0. -1.
<mgrwt>
<rscale>  0 0.28607202E+01</rscale>
<asrwt>0</asrwt>
<pdfrwt beam="1">0</pdfrwt>
<pdfrwt beam="2">0</pdfrwt>
<totfact> 0.96952509E+11</totfact>
</mgrwt>
</event>
<event>
 4    1  0.1750553E+006  0.3171373E+01  0.7546771E-02  0.2470650E+00
         22   -1    0    0    0    0  0.00000000000E+00  0.00000000000E+00  0.68397991880E+00  0.68397991880E+00  0.00000000000E+00 0.  1.
         22   -1    0    0    0    0 -0.00000000000E+00 -0.00000000000E+00 -0.14831495588E+02  0.14831495588E+02  0.00000000000E+00 0. -1.
          4    1    1    2  501    0  0.24641980323E+01  0.15402719613E+01 -0.77915018451E+01  0.84122001082E+01  0.12700000000E+01 0.  1.
         -4    1    1    2    0  501 -0.24641980323E+01 -0.15402719613E+01 -0.63560138239E+01  0.71032753985E+01  0.12700000000E+01 0. -1.
<mgrwt>
<rscale>  0 0.31713735E+01</rscale>
<asrwt>0</asrwt>
<pdfrwt beam="1">0</pdfrwt>
<pdfrwt beam="2">0</pdfrwt>
<totfact> 0.15115354E+12</totfact>
</mgrwt>
</event>
<event>
 4    1  0.1750553E+006  0.2309351E+01  0.7546771E-02  0.2799056E+00
         22   -1    0    0    0    0  0.00000000000E+00  0.00000000000E+00  0.21424826332E+00  0.21424826332E+00  0.00000000000E+00 0. -1.
         22   -1    0    0    0    0 -0.00000000000E+00 -0.00000000000E+00 -0.33234398382E+02  0.33234398382E+02  0.00000000000E+00 0.  1.
          4    1    1    2  501    0  0.14779611557E+01  0.12392872390E+01 -0.81310026492E+01  0.84525916806E+01  0.12700000000E+01 0. -1.
         -4    1    1    2    0  501 -0.14779611557E+01 -0.12392872390E+01 -0.24889147470E+02  0.24996054965E+02  0.12700000000E+01 0.  1.
<mgrwt>
<rscale>  0 0.23093510E+01</rscale>
<asrwt>0</asrwt>
<pdfrwt beam="1">0</pdfrwt>
<pdfrwt beam="2">0</pdfrwt>
<totfact> 0.20280123E+12</totfact>
</mgrwt>
</event>
<event>
 4    1  0.1750553E+006  0.2190045E+01  0.7546771E-02  0.2863264E+00
         22   -1    0    0    0    0  0.00000000000E+00  0.00000000000E+00  0.16279625173E+01  0.16279625173E+01  0.00000000000E+00 0.  1.
         22   -1    0    0    0    0 -0.00000000000E+00 -0.00000000000E+00 -0.49117461636E+01  0.49117461636E+01  0.00000000000E+00 0. -1.
          4    1    1    2  501    0  0.17782699158E+01 -0.14544562889E+00  0.42659330362E+00  0.22312059903E+01  0.12700000000E+01 0.  1.
         -4    1    1    2    0  501 -0.17782699158E+01  0.14544562889E+00 -0.37103769500E+01  0.43085026907E+01  0.12700000000E+01 0. -1.
<mgrwt>
<rscale>  0 0.21900453E+01</rscale>
<asrwt>0</asrwt>
<pdfrwt beam="1">0</pdfrwt>
<pdfrwt beam="2">0</pdfrwt>
<totfact> 0.21240363E+12</totfact>
</mgrwt>
</event>
<event>
 4    1  0.1750553E+006  0.2852161E+01  0.7546771E-02  0.2571069E+00
         22   -1    0    0    0    0  0.00000000000E+00  0.00000000000E+00  0.16467790820E+01  0.16467790820E+01  0.00000000000E+00 0.  1.
         22   -1    0    0    0    0 -0.00000000000E+00 -0.00000000000E+00 -0.49536289408E+01  0.49536289408E+01  0.00000000000E+00 0. -1.
          4    1    1    2  501    0 -0.13438270252E+01  0.21716465694E+01 -0.14792863337E+01  0.32129593762E+01  0.12700000000E+01 0. -1.
         -4    1    1    2    0  501  0.13438270252E+01 -0.21716465694E+01 -0.18275635251E+01  0.33874486467E+01  0.12700000000E+01 0. -1.
<mgrwt>
<rscale>  0 0.28521606E+01</rscale>
<asrwt>0</asrwt>
<pdfrwt beam="1">0</pdfrwt>
<pdfrwt beam="2">0</pdfrwt>
<totfact> 0.20752488E+12</totfact>
</mgrwt>
</event>
<event>
 4    1  0.1750553E+006  0.3287520E+01  0.7546771E-02  0.2438452E+00
         22   -1    0    0    0    0  0.00000000000E+00  0.00000000000E+00  0.14774738961E+02  0.14774738961E+02  0.00000000000E+00 0. -1.
         22   -1    0    0    0    0 -0.00000000000E+00 -0.00000000000E+00 -0.75586387086E+00  0.75586387086E+00  0.00000000000E+00 0.  1.
          4    1    1    2  501    0  0.30200901195E+01 -0.27192665701E+00  0.84034585466E+01  0.90236303105E+01  0.12700000000E+01 0. -1.
         -4    1    1    2    0  501 -0.30200901195E+01  0.27192665701E+00  0.56154165438E+01  0.65069725216E+01  0.12700000000E+01 0.  1.
<mgrwt>
<rscale>  0 0.32875201E+01</rscale>
<asrwt>0</asrwt>
<pdfrwt beam="1">0</pdfrwt>
<pdfrwt beam="2">0</pdfrwt>
<totfact> 0.13557549E+12</totfact>
</mgrwt>
</event>
<event>
 4    1  0.1750553E+006  0.2062200E+01  0.7546771E-02  0.2939968E+00
         22   -1    0    0    0    0  0.00000000000E+00  0.00000000000E+00  0.42257314046E+01  0.42257314046E+01  0.00000000000E+00 0. -1.
         22   -1    0    0    0    0 -0.00000000000E+00 -0.00000000000E+00 -0.33347762575E+02  0.33347762575E+02  0.00000000000E+00 0.  1.
          4    1    1    2  501    0  0.82074741932E+00  0.14021925324E+01  0.39400848588E+01  0.44471270410E+01  0.12700000000E+01 0. -1.
         -4    1    1    2    0  501 -0.82074741932E+00 -0.14021925324E+01 -0.33062116029E+02  0.33126366939E+02  0.12700000000E+01 0.  1.
<mgrwt>
<rscale>  0 0.20622003E+01</rscale>
<asrwt>0</asrwt>
<pdfrwt beam="1">0</pdfrwt>
<pdfrwt beam="2">0</pdfrwt>
<totfact> 0.66810936E+10</totfact>
</mgrwt>
</event>
<event>
 4    1  0.1750553E+006  0.2148630E+01  0.7546771E-02  0.2887146E+00
         22   -1    0    0    0    0  0.00000000000E+00  0.00000000000E+00  0.63792460255E+00  0.63792460255E+00  0.00000000000E+00 0.  1.
         22   -1    0    0    0    0 -0.00000000000E+00 -0.00000000000E+00 -0.87913157743E+01  0.87913157743E+01  0.00000000000E+00 0.  1.
          4    1    1    2  501    0  0.14697283117E+01 -0.91848177567E+00 -0.20942539650E+01  0.30004182629E+01  0.12700000000E+01 0.  1.
         -4    1    1    2    0  501 -0.14697283117E+01  0.91848177567E+00 -0.60591372068E+01  0.64288221140E+01  0.12700000000E+01 0.  1.
<mgrwt>
<rscale>  0 0.21486298E+01</rscale>
<asrwt>0</asrwt>
<pdfrwt beam="1">0</pdfrwt>
<pdfrwt beam="2">0</pdfrwt>
<totfact> 0.30915903E+12</totfact>
</mgrwt>
</event>
<event>
 4    1  0.1750553E+006  0.3029477E+01  0.7546771E-02  0.2512946E+00
         22   -1    0    0    0    0  0.00000000000E+00  0.00000000000E+00  0.16947264531E+01  0.16947264531E+01  0.00000000000E+00 0.  1.
         22   -1    0    0    0    0 -0.00000000000E+00 -0.00000000000E+00 -0.56318186271E+01  0.56318186271E+01  0.00000000000E+00 0. -1.
          4    1    1    2  501    0 -0.15125597365E+01 -0.22971704590E+01 -0.12505392164E+01  0.32774345769E+01  0.12700000000E+01 0. -1.
         -4    1    1    2    0  501  0.15125597365E+01  0.22971704590E+01 -0.26865529577E+01  0.40491105034E+01  0.12700000000E+01 0.  1.
<mgrwt>
<rscale>  0 0.30294767E+01</rscale>
<asrwt>0</asrwt>
<pdfrwt beam="1">0</pdfrwt>
<pdfrwt beam="2">0</pdfrwt>
<totfact> 0.17243111E+12</totfact>
</mgrwt>
</event>
<event>
 4    1  0.1750553E+006  0.2169993E+01  0.7546771E-02  0.2874718E+00
         22   -1    0    0    0    0  0.00000000000E+00  0.00000000000E+00  0.34212531502E+01  0.34212531502E+01  0.00000000000E+00 0.  1.
         22   -1    0    0    0    0 -0.00000000000E+00 -0.00000000000E+00 -0.15611492677E+01  0.15611492677E+01  0.00000000000E+00 0. -1.
          4    1    1    2  501    0  0.13822812168E+01  0.10886998491E+01  0.17871439733E+01  0.28111834349E+01  0.12700000000E+01 0.  1.
         -4    1    1    2    0  501 -0.13822812168E+01 -0.10886998491E+01  0.72959909227E-01  0.21712189830E+01  0.12700000000E+01 0. -1.
<mgrwt>
<rscale>  0 0.21699928E+01</rscale>
<asrwt>0</asrwt>
<pdfrwt beam="1">0</pdfrwt>
<pdfrwt beam="2">0</pdfrwt>
<totfact> 0.34124515E+12</totfact>
</mgrwt>
</event>
<event>
 4    1  0.1750553E+006  0.2138008E+01  0.7546771E-02  0.2893415E+00
         22   -1    0    0    0    0  0.00000000000E+00  0.00000000000E+00  0.21955726444E+01  0.21955726444E+01  0.00000000000E+00 0. -1.
         22   -1    0    0    0    0 -0.00000000000E+00 -0.00000000000E+00 -0.25698868667E+01  0.25698868667E+01  0.00000000000E+00 0. -1.
          4    1    1    2  501    0  0.52679503399E+00  0.16372734720E+01  0.85108489606E+00  0.23011785959E+01  0.12700000000E+01 0. -1.
         -4    1    1    2    0  501 -0.52679503399E+00 -0.16372734720E+01 -0.12253991183E+01  0.24642809152E+01  0.12700000000E+01 0. -1.
<mgrwt>
<rscale>  0 0.21380078E+01</rscale>
<asrwt>0</asrwt>
<pdfrwt beam="1">0</pdfrwt>
<pdfrwt beam="2">0</pdfrwt>
<totfact> 0.32140373E+12</totfact>
</mgrwt>
</event>
<event>
 4    1  0.1750553E+006  0.2200403E+01  0.7546771E-02  0.2857426E+00
         22   -1    0    0    0    0  0.00000000000E+00  0.00000000000E+00  0.52158677032E+00  0.52158677032E+00  0.00000000000E+00 0. -1.
         22   -1    0    0    0    0 -0.00000000000E+00 -0.00000000000E+00 -0.10280658197E+02  0.10280658197E+02  0.00000000000E+00 0.  1.
          4    1    1    2  501    0 -0.77643715037E+00 -0.16205001737E+01 -0.65622572007E+01  0.69213434411E+01  0.12700000000E+01 0.  1.
         -4    1    1    2    0  501  0.77643715037E+00  0.16205001737E+01 -0.31968142262E+01  0.38809015265E+01  0.12700000000E+01 0. -1.
<mgrwt>
<rscale>  0 0.22004035E+01</rscale>
<asrwt>0</asrwt>
<pdfrwt beam="1">0</pdfrwt>
<pdfrwt beam="2">0</pdfrwt>
<totfact> 0.32136085E+12</totfact>
</mgrwt>
</event>
<event>
 4    1  0.1750553E+006  0.2157023E+01  0.7546771E-02  0.2882235E+00
         22   -1    0    0    0    0  0.00000000000E+00  0.00000000000E+00  0.28114982180E+00  0.28114982180E+00  0.00000000000E+00 0.  1.
         22   -1    0    0    0    0 -0.00000000000E+00 -0.00000000000E+00 -0.27976036493E+02  0.27976036493E+02  0.00000000000E+00 0. -1.
          4    1    1    2  501    0  0.15077652180E+01 -0.87549508908E+00 -0.48177565182E+01  0.52785912394E+01  0.12700000000E+01 0.  1.
         -4    1    1    2    0  501 -0.15077652180E+01  0.87549508908E+00 -0.22877130153E+02  0.22978595075E+02  0.12700000000E+01 0. -1.
<mgrwt>
<rscale>  0 0.21570229E+01</rscale>
<asrwt>0</asrwt>
<pdfrwt beam="1">0</pdfrwt>
<pdfrwt beam="2">0</pdfrwt>
<totfact> 0.18641894E+12</totfact>
</mgrwt>
</event>
<event>
 4    1  0.1750553E+006  0.2005431E+01  0.7546771E-02  0.2977071E+00
         22   -1    0    0    0    0  0.00000000000E+00  0.00000000000E+00  0.16924787684E+02  0.16924787684E+02  0.00000000000E+00 0. -1.
         22   -1    0    0    0    0 -0.00000000000E+00 -0.00000000000E+00 -0.31862992076E+00  0.31862992076E+00  0.00000000000E+00 0.  1.
          4    1    1    2  501    0  0.13601562658E+01 -0.74754797301E+00  0.39559179753E+01  0.44352046251E+01  0.12700000000E+01 0.  1.
         -4    1    1    2    0  501 -0.13601562658E+01  0.74754797301E+00  0.12650239788E+02  0.12808212979E+02  0.12700000000E+01 0. -1.
<mgrwt>
<rscale>  0 0.20054309E+01</rscale>
<asrwt>0</asrwt>
<pdfrwt beam="1">0</pdfrwt>
<pdfrwt beam="2">0</pdfrwt>
<totfact> 0.30403420E+12</totfact>
</mgrwt>
</event>
<event>
 4    1  0.1750553E+006  0.3439965E+01  0.7546771E-02  0.2399112E+00
         22   -1    0    0    0    0  0.00000000000E+00  0.00000000000E+00  0.13318417699E+02  0.13318417699E+02  0.00000000000E+00 0. -1.
         22   -1    0    0    0    0 -0.00000000000E+00 -0.00000000000E+00 -0.91469268448E+00  0.91469268448E+00  0.00000000000E+00 0.  1.
          4    1    1    2  501    0  0.31633112076E+01 -0.46251889110E+00  0.74062187475E+01  0.81661152120E+01  0.12700000000E+01 0. -1.
         -4    1    1    2    0  501 -0.31633112076E+01  0.46251889110E+00  0.49975062668E+01  0.60669951712E+01  0.12700000000E+01 0.  1.
<mgrwt>
<rscale>  0 0.34399653E+01</rscale>
<asrwt>0</asrwt>
<pdfrwt beam="1">0</pdfrwt>
<pdfrwt beam="2">0</pdfrwt>
<totfact> 0.12393485E+12</totfact>
</mgrwt>
</event>
<event>
 4    1  0.1750553E+006  0.2299647E+01  0.7546771E-02  0.2804041E+00
         22   -1    0    0    0    0  0.00000000000E+00  0.00000000000E+00  0.86079425969E+01  0.86079425969E+01  0.00000000000E+00 0.  1.
         22   -1    0    0    0    0 -0.00000000000E+00 -0.00000000000E+00 -0.10970824103E+01  0.10970824103E+01  0.00000000000E+00 0. -1.
          4    1    1    2  501    0 -0.13379241603E+01  0.13731109964E+01  0.69742435390E+01  0.73435991045E+01  0.12700000000E+01 0.  1.
         -4    1    1    2    0  501  0.13379241603E+01 -0.13731109964E+01  0.53661664763E+00  0.23614259027E+01  0.12700000000E+01 0. -1.
<mgrwt>
<rscale>  0 0.22996467E+01</rscale>
<asrwt>0</asrwt>
<pdfrwt beam="1">0</pdfrwt>
<pdfrwt beam="2">0</pdfrwt>
<totfact> 0.17105587E+12</totfact>
</mgrwt>
</event>
<event>
 4    1  0.1750553E+006  0.2388053E+01  0.7546771E-02  0.2760040E+00
         22   -1    0    0    0    0  0.00000000000E+00  0.00000000000E+00  0.29048848350E+00  0.29048848350E+00  0.00000000000E+00 0. -1.
         22   -1    0    0    0    0 -0.00000000000E+00 -0.00000000000E+00 -0.25498834890E+02  0.25498834890E+02  0.00000000000E+00 0. -1.
          4    1    1    2  501    0  0.63404943313E+00  0.19203847335E+01 -0.64188683833E+01  0.68486982362E+01  0.12700000000E+01 0. -1.
         -4    1    1    2    0  501 -0.63404943313E+00 -0.19203847335E+01 -0.18789478024E+02  0.18940625138E+02  0.12700000000E+01 0. -1.
<mgrwt>
<rscale>  0 0.23880528E+01</rscale>
<asrwt>0</asrwt>
<pdfrwt beam="1">0</pdfrwt>
<pdfrwt beam="2">0</pdfrwt>
<totfact> 0.20210770E+12</totfact>
</mgrwt>
</event>
<event>
 4    1  0.1750553E+006  0.2326550E+01  0.7546771E-02  0.2790317E+00
         22   -1    0    0    0    0  0.00000000000E+00  0.00000000000E+00  0.65222224948E+00  0.65222224948E+00  0.00000000000E+00 0.  1.
         22   -1    0    0    0    0 -0.00000000000E+00 -0.00000000000E+00 -0.83039351566E+01  0.83039351566E+01  0.00000000000E+00 0.  1.
          4    1    1    2  501    0  0.12277807240E+01  0.15140963694E+01 -0.37173825789E+01  0.43854038081E+01  0.12700000000E+01 0.  1.
         -4    1    1    2    0  501 -0.12277807240E+01 -0.15140963694E+01 -0.39343303282E+01  0.45707535980E+01  0.12700000000E+01 0.  1.
<mgrwt>
<rscale>  0 0.23265497E+01</rscale>
<asrwt>0</asrwt>
<pdfrwt beam="1">0</pdfrwt>
<pdfrwt beam="2">0</pdfrwt>
<totfact> 0.32293097E+12</totfact>
</mgrwt>
</event>
<event>
 4    1  0.1750553E+006  0.2489592E+01  0.7546771E-02  0.2713136E+00
         22   -1    0    0    0    0  0.00000000000E+00  0.00000000000E+00  0.17382335168E+02  0.17382335168E+02  0.00000000000E+00 0.  1.
         22   -1    0    0    0    0 -0.00000000000E+00 -0.00000000000E+00 -0.65342218701E+00  0.65342218701E+00  0.00000000000E+00 0. -1.
          4    1    1    2  501    0 -0.20782517957E+01 -0.51579012161E+00  0.14442662863E+02  0.14655667182E+02  0.12700000000E+01 0.  1.
         -4    1    1    2    0  501  0.20782517957E+01  0.51579012161E+00  0.22862501181E+01  0.33800901731E+01  0.12700000000E+01 0. -1.
<mgrwt>
<rscale>  0 0.24895923E+01</rscale>
<asrwt>0</asrwt>
<pdfrwt beam="1">0</pdfrwt>
<pdfrwt beam="2">0</pdfrwt>
<totfact> 0.13087273E+12</totfact>
</mgrwt>
</event>
<event>
 4    1  0.1750553E+006  0.2652499E+01  0.7546771E-02  0.2644891E+00
         22   -1    0    0    0    0  0.00000000000E+00  0.00000000000E+00  0.66439125053E+01  0.66439125053E+01  0.00000000000E+00 0. -1.
         22   -1    0    0    0    0 -0.00000000000E+00 -0.00000000000E+00 -0.21474378434E+01  0.21474378434E+01  0.00000000000E+00 0. -1.
          4    1    1    2  501    0 -0.56995003647E+00 -0.22578764683E+01  0.53777141313E+01  0.59962953953E+01  0.12700000000E+01 0. -1.
         -4    1    1    2    0  501  0.56995003647E+00  0.22578764683E+01 -0.88123946936E+00  0.27950549534E+01  0.12700000000E+01 0. -1.
<mgrwt>
<rscale>  0 0.26524987E+01</rscale>
<asrwt>0</asrwt>
<pdfrwt beam="1">0</pdfrwt>
<pdfrwt beam="2">0</pdfrwt>
<totfact> 0.10770253E+12</totfact>
</mgrwt>
</event>
<event>
 4    1  0.1750553E+006  0.4043176E+01  0.7546771E-02  0.2269116E+00
         22   -1    0    0    0    0  0.00000000000E+00  0.00000000000E+00  0.38019266782E+01  0.38019266782E+01  0.00000000000E+00 0. -1.
         22   -1    0    0    0    0 -0.00000000000E+00 -0.00000000000E+00 -0.82012205260E+01  0.82012205260E+01  0.00000000000E+00 0.  1.
          4    1    1    2  501    0 -0.15804843004E+01 -0.34980628685E+01  0.19397867842E+01  0.44844227303E+01  0.12700000000E+01 0. -1.
         -4    1    1    2    0  501  0.15804843004E+01  0.34980628685E+01 -0.63390806321E+01  0.75187244740E+01  0.12700000000E+01 0.  1.
<mgrwt>
<rscale>  0 0.40431763E+01</rscale>
<asrwt>0</asrwt>
<pdfrwt beam="1">0</pdfrwt>
<pdfrwt beam="2">0</pdfrwt>
<totfact> 0.42968476E+11</totfact>
</mgrwt>
</event>
<event>
 4    1  0.1750553E+006  0.3456304E+01  0.7546771E-02  0.2395077E+00
         22   -1    0    0    0    0  0.00000000000E+00  0.00000000000E+00  0.14922661552E+02  0.14922661552E+02  0.00000000000E+00 0.  1.
         22   -1    0    0    0    0 -0.00000000000E+00 -0.00000000000E+00 -0.18255944725E+01  0.18255944725E+01  0.00000000000E+00 0. -1.
          4    1    1    2  501    0  0.75633231559E-01 -0.32136299835E+01  0.12823523467E+02  0.13281144234E+02  0.12700000000E+01 0.  1.
         -4    1    1    2    0  501 -0.75633231559E-01  0.32136299835E+01  0.27354361216E+00  0.34671117900E+01  0.12700000000E+01 0. -1.
<mgrwt>
<rscale>  0 0.34563041E+01</rscale>
<asrwt>0</asrwt>
<pdfrwt beam="1">0</pdfrwt>
<pdfrwt beam="2">0</pdfrwt>
<totfact> 0.48773867E+11</totfact>
</mgrwt>
</event>
<event>
 4    1  0.1750553E+006  0.2225800E+01  0.7546771E-02  0.2843332E+00
         22   -1    0    0    0    0  0.00000000000E+00  0.00000000000E+00  0.15951224447E+01  0.15951224447E+01  0.00000000000E+00 0. -1.
         22   -1    0    0    0    0 -0.00000000000E+00 -0.00000000000E+00 -0.31307623419E+01  0.31307623419E+01  0.00000000000E+00 0.  1.
          4    1    1    2  501    0 -0.14177825176E+01 -0.11537670590E+01 -0.55696983049E+00  0.22944282699E+01  0.12700000000E+01 0.  1.
         -4    1    1    2    0  501  0.14177825176E+01  0.11537670590E+01 -0.97867006670E+00  0.24314565168E+01  0.12700000000E+01 0. -1.
<mgrwt>
<rscale>  0 0.22258000E+01</rscale>
<asrwt>0</asrwt>
<pdfrwt beam="1">0</pdfrwt>
<pdfrwt beam="2">0</pdfrwt>
<totfact> 0.36933070E+12</totfact>
</mgrwt>
</event>
<event>
 4    1  0.1750553E+006  0.3774707E+01  0.7546771E-02  0.2322545E+00
         22   -1    0    0    0    0  0.00000000000E+00  0.00000000000E+00  0.20326498308E+01  0.20326498308E+01  0.00000000000E+00 0. -1.
         22   -1    0    0    0    0 -0.00000000000E+00 -0.00000000000E+00 -0.71424529848E+01  0.71424529848E+01  0.00000000000E+00 0.  1.
          4    1    1    2  501    0 -0.20372881356E+00 -0.35488041261E+01 -0.31801579712E+01  0.49357695324E+01  0.12700000000E+01 0.  1.
         -4    1    1    2    0  501  0.20372881356E+00  0.35488041261E+01 -0.19296451827E+01  0.42393332832E+01  0.12700000000E+01 0. -1.
<mgrwt>
<rscale>  0 0.37747074E+01</rscale>
<asrwt>0</asrwt>
<pdfrwt beam="1">0</pdfrwt>
<pdfrwt beam="2">0</pdfrwt>
<totfact> 0.10527051E+12</totfact>
</mgrwt>
</event>
<event>
 4    1  0.1750553E+006  0.5033349E+01  0.7546771E-02  0.2119044E+00
         22   -1    0    0    0    0  0.00000000000E+00  0.00000000000E+00  0.29768124322E+01  0.29768124322E+01  0.00000000000E+00 0. -1.
         22   -1    0    0    0    0 -0.00000000000E+00 -0.00000000000E+00 -0.17006156605E+02  0.17006156605E+02  0.00000000000E+00 0.  1.
          4    1    1    2  501    0  0.48668653871E+01  0.18795270726E+00  0.47228612240E-01  0.50335708457E+01  0.12700000000E+01 0. -1.
         -4    1    1    2    0  501 -0.48668653871E+01 -0.18795270726E+00 -0.14076572785E+02  0.14949398192E+02  0.12700000000E+01 0.  1.
<mgrwt>
<rscale>  0 0.50333493E+01</rscale>
<asrwt>0</asrwt>
<pdfrwt beam="1">0</pdfrwt>
<pdfrwt beam="2">0</pdfrwt>
<totfact> 0.23524940E+11</totfact>
</mgrwt>
</event>
<event>
 4    1  0.1750553E+006  0.3225360E+01  0.7546771E-02  0.2455428E+00
         22   -1    0    0    0    0  0.00000000000E+00  0.00000000000E+00  0.96096280607E+00  0.96096280607E+00  0.00000000000E+00 0. -1.
         22   -1    0    0    0    0 -0.00000000000E+00 -0.00000000000E+00 -0.41095996492E+02  0.41095996492E+02  0.00000000000E+00 0.  1.
          4    1    1    2  501    0 -0.29592835732E+01  0.18080242765E+00 -0.20199962533E+01  0.38056975244E+01  0.12700000000E+01 0. -1.
         -4    1    1    2    0  501  0.29592835732E+01 -0.18080242765E+00 -0.38115037433E+02  0.38251261774E+02  0.12700000000E+01 0.  1.
<mgrwt>
<rscale>  0 0.32253603E+01</rscale>
<asrwt>0</asrwt>
<pdfrwt beam="1">0</pdfrwt>
<pdfrwt beam="2">0</pdfrwt>
<totfact> 0.28366213E+11</totfact>
</mgrwt>
</event>
<event>
 4    1  0.1750553E+006  0.2512986E+01  0.7546771E-02  0.2702832E+00
         22   -1    0    0    0    0  0.00000000000E+00  0.00000000000E+00  0.12447320356E+02  0.12447320356E+02  0.00000000000E+00 0.  1.
         22   -1    0    0    0    0 -0.00000000000E+00 -0.00000000000E+00 -0.51370562728E+00  0.51370562728E+00  0.00000000000E+00 0.  1.
          4    1    1    2  501    0  0.12279702199E+01  0.17872572475E+01  0.66878566289E+01  0.71444051970E+01  0.12700000000E+01 0.  1.
         -4    1    1    2    0  501 -0.12279702199E+01 -0.17872572475E+01  0.52457580994E+01  0.58166207859E+01  0.12700000000E+01 0.  1.
<mgrwt>
<rscale>  0 0.25129861E+01</rscale>
<asrwt>0</asrwt>
<pdfrwt beam="1">0</pdfrwt>
<pdfrwt beam="2">0</pdfrwt>
<totfact> 0.25908377E+12</totfact>
</mgrwt>
</event>
<event>
 4    1  0.1750553E+006  0.2373956E+01  0.7546771E-02  0.2766849E+00
         22   -1    0    0    0    0  0.00000000000E+00  0.00000000000E+00  0.89842799930E+00  0.89842799930E+00  0.00000000000E+00 0. -1.
         22   -1    0    0    0    0 -0.00000000000E+00 -0.00000000000E+00 -0.62963753919E+01  0.62963753919E+01  0.00000000000E+00 0.  1.
          4    1    1    2  501    0  0.57564109799E+00 -0.19213026821E+01 -0.29190615225E+01  0.37625239989E+01  0.12700000000E+01 0. -1.
         -4    1    1    2    0  501 -0.57564109799E+00  0.19213026821E+01 -0.24788858700E+01  0.34322793923E+01  0.12700000000E+01 0.  1.
<mgrwt>
<rscale>  0 0.23739559E+01</rscale>
<asrwt>0</asrwt>
<pdfrwt beam="1">0</pdfrwt>
<pdfrwt beam="2">0</pdfrwt>
<totfact> 0.31255340E+12</totfact>
</mgrwt>
</event>
<event>
 4    1  0.1750553E+006  0.2486288E+01  0.7546771E-02  0.2714606E+00
         22   -1    0    0    0    0  0.00000000000E+00  0.00000000000E+00  0.76663527366E+01  0.76663527366E+01  0.00000000000E+00 0. -1.
         22   -1    0    0    0    0 -0.00000000000E+00 -0.00000000000E+00 -0.11466755464E+01  0.11466755464E+01  0.00000000000E+00 0.  1.
          4    1    1    2  501    0  0.18800250974E+01  0.10169728006E+01  0.56605140041E+01  0.61824790201E+01  0.12700000000E+01 0.  1.
         -4    1    1    2    0  501 -0.18800250974E+01 -0.10169728006E+01  0.85916318617E+00  0.26305492629E+01  0.12700000000E+01 0. -1.
<mgrwt>
<rscale>  0 0.24862880E+01</rscale>
<asrwt>0</asrwt>
<pdfrwt beam="1">0</pdfrwt>
<pdfrwt beam="2">0</pdfrwt>
<totfact> 0.18691798E+12</totfact>
</mgrwt>
</event>
<event>
 4    1  0.1750553E+006  0.2698185E+01  0.7546771E-02  0.2627120E+00
         22   -1    0    0    0    0  0.00000000000E+00  0.00000000000E+00  0.23129775832E+02  0.23129775832E+02  0.00000000000E+00 0. -1.
         22   -1    0    0    0    0 -0.00000000000E+00 -0.00000000000E+00 -0.31811670798E+00  0.31811670798E+00  0.00000000000E+00 0.  1.
          4    1    1    2  501    0 -0.23804272020E+01 -0.29505144823E-01  0.12611098485E+02  0.12896511514E+02  0.12700000000E+01 0.  1.
         -4    1    1    2    0  501  0.23804272020E+01  0.29505144823E-01  0.10200560639E+02  0.10551381026E+02  0.12700000000E+01 0. -1.
<mgrwt>
<rscale>  0 0.26981854E+01</rscale>
<asrwt>0</asrwt>
<pdfrwt beam="1">0</pdfrwt>
<pdfrwt beam="2">0</pdfrwt>
<totfact> 0.20638580E+12</totfact>
</mgrwt>
</event>
<event>
 4    1  0.1750553E+006  0.2529215E+01  0.7546771E-02  0.2695789E+00
         22   -1    0    0    0    0  0.00000000000E+00  0.00000000000E+00  0.12508460971E+01  0.12508460971E+01  0.00000000000E+00 0.  1.
         22   -1    0    0    0    0 -0.00000000000E+00 -0.00000000000E+00 -0.87215179340E+01  0.87215179340E+01  0.00000000000E+00 0.  1.
          4    1    1    2  501    0 -0.61516805634E+00 -0.20989508606E+01 -0.52853832144E+00  0.25838496880E+01  0.12700000000E+01 0.  1.
         -4    1    1    2    0  501  0.61516805634E+00  0.20989508606E+01 -0.69421335154E+01  0.73885143431E+01  0.12700000000E+01 0.  1.
<mgrwt>
<rscale>  0 0.25292146E+01</rscale>
<asrwt>0</asrwt>
<pdfrwt beam="1">0</pdfrwt>
<pdfrwt beam="2">0</pdfrwt>
<totfact> 0.14489500E+12</totfact>
</mgrwt>
</event>
<event>
 4    1  0.1750553E+006  0.2167955E+01  0.7546771E-02  0.2875893E+00
         22   -1    0    0    0    0  0.00000000000E+00  0.00000000000E+00  0.12583193600E+01  0.12583193600E+01  0.00000000000E+00 0. -1.
         22   -1    0    0    0    0 -0.00000000000E+00 -0.00000000000E+00 -0.43289968920E+01  0.43289968920E+01  0.00000000000E+00 0.  1.
          4    1    1    2  501    0  0.96830805042E+00  0.14661200550E+01 -0.50064473704E+00  0.22250109323E+01  0.12700000000E+01 0. -1.
         -4    1    1    2    0  501 -0.96830805042E+00 -0.14661200550E+01 -0.25700327949E+01  0.33623053197E+01  0.12700000000E+01 0.  1.
<mgrwt>
<rscale>  0 0.21679549E+01</rscale>
<asrwt>0</asrwt>
<pdfrwt beam="1">0</pdfrwt>
<pdfrwt beam="2">0</pdfrwt>
<totfact> 0.33154263E+12</totfact>
</mgrwt>
</event>
<event>
 4    1  0.1750553E+006  0.2203183E+01  0.7546771E-02  0.2855868E+00
         22   -1    0    0    0    0  0.00000000000E+00  0.00000000000E+00  0.11534854666E+02  0.11534854666E+02  0.00000000000E+00 0. -1.
         22   -1    0    0    0    0 -0.00000000000E+00 -0.00000000000E+00 -0.64934878476E+00  0.64934878476E+00  0.00000000000E+00 0. -1.
          4    1    1    2  501    0 -0.59637881903E+00 -0.16986609659E+01  0.90568951639E+01  0.93210174757E+01  0.12700000000E+01 0. -1.
         -4    1    1    2    0  501  0.59637881903E+00  0.16986609659E+01  0.18286107177E+01  0.28631859754E+01  0.12700000000E+01 0. -1.
<mgrwt>
<rscale>  0 0.22031833E+01</rscale>
<asrwt>0</asrwt>
<pdfrwt beam="1">0</pdfrwt>
<pdfrwt beam="2">0</pdfrwt>
<totfact> 0.21805653E+12</totfact>
</mgrwt>
</event>
<event>
 4    1  0.1750553E+006  0.2376798E+01  0.7546771E-02  0.2765470E+00
         22   -1    0    0    0    0  0.00000000000E+00  0.00000000000E+00  0.24708765436E+00  0.24708765436E+00  0.00000000000E+00 0.  1.
         22   -1    0    0    0    0 -0.00000000000E+00 -0.00000000000E+00 -0.32964639240E+02  0.32964639240E+02  0.00000000000E+00 0. -1.
          4    1    1    2  501    0 -0.17539473181E-01 -0.20089697815E+01 -0.71662885301E+01  0.75501561913E+01  0.12700000000E+01 0.  1.
         -4    1    1    2    0  501  0.17539473181E-01  0.20089697815E+01 -0.25551263056E+02  0.25661570703E+02  0.12700000000E+01 0. -1.
<mgrwt>
<rscale>  0 0.23767977E+01</rscale>
<asrwt>0</asrwt>
<pdfrwt beam="1">0</pdfrwt>
<pdfrwt beam="2">0</pdfrwt>
<totfact> 0.17474474E+12</totfact>
</mgrwt>
</event>
<event>
 4    1  0.1750553E+006  0.5297707E+01  0.7546771E-02  0.2089060E+00
         22   -1    0    0    0    0  0.00000000000E+00  0.00000000000E+00  0.24298836866E+02  0.24298836866E+02  0.00000000000E+00 0. -1.
         22   -1    0    0    0    0 -0.00000000000E+00 -0.00000000000E+00 -0.20133358747E+01  0.20133358747E+01  0.00000000000E+00 0. -1.
          4    1    1    2  501    0  0.23986273133E+01  0.45496573834E+01  0.19732720026E+02  0.20431493703E+02  0.12700000000E+01 0. -1.
         -4    1    1    2    0  501 -0.23986273133E+01 -0.45496573834E+01  0.25527809655E+01  0.58806790384E+01  0.12700000000E+01 0. -1.
<mgrwt>
<rscale>  0 0.52977066E+01</rscale>
<asrwt>0</asrwt>
<pdfrwt beam="1">0</pdfrwt>
<pdfrwt beam="2">0</pdfrwt>
<totfact> 0.23744249E+11</totfact>
</mgrwt>
</event>
<event>
 4    1  0.1750553E+006  0.2521560E+01  0.7546771E-02  0.2699101E+00
         22   -1    0    0    0    0  0.00000000000E+00  0.00000000000E+00  0.14746855216E+00  0.14746855216E+00  0.00000000000E+00 0.  1.
         22   -1    0    0    0    0 -0.00000000000E+00 -0.00000000000E+00 -0.49303027737E+02  0.49303027737E+02  0.00000000000E+00 0. -1.
          4    1    1    2  501    0  0.86270335181E+00  0.20002772445E+01 -0.15819031592E+02  0.16018739857E+02  0.12700000000E+01 0.  1.
         -4    1    1    2    0  501 -0.86270335181E+00 -0.20002772445E+01 -0.33336527593E+02  0.33431756432E+02  0.12700000000E+01 0. -1.
<mgrwt>
<rscale>  0 0.25215603E+01</rscale>
<asrwt>0</asrwt>
<pdfrwt beam="1">0</pdfrwt>
<pdfrwt beam="2">0</pdfrwt>
<totfact> 0.18418613E+12</totfact>
</mgrwt>
</event>
<event>
 4    1  0.1750553E+006  0.3705986E+01  0.7546771E-02  0.2337285E+00
         22   -1    0    0    0    0  0.00000000000E+00  0.00000000000E+00  0.44976042945E+01  0.44976042945E+01  0.00000000000E+00 0. -1.
         22   -1    0    0    0    0 -0.00000000000E+00 -0.00000000000E+00 -0.55780078891E+01  0.55780078891E+01  0.00000000000E+00 0.  1.
          4    1    1    2  501    0  0.87179688359E+00  0.33706681013E+01  0.28488098870E+01  0.46744038152E+01  0.12700000000E+01 0. -1.
         -4    1    1    2    0  501 -0.87179688359E+00 -0.33706681013E+01 -0.39292134816E+01  0.54012083684E+01  0.12700000000E+01 0.  1.
<mgrwt>
<rscale>  0 0.37059861E+01</rscale>
<asrwt>0</asrwt>
<pdfrwt beam="1">0</pdfrwt>
<pdfrwt beam="2">0</pdfrwt>
<totfact> 0.55876055E+11</totfact>
</mgrwt>
</event>
<event>
 4    1  0.1750553E+006  0.3425887E+01  0.7546771E-02  0.2402616E+00
         22   -1    0    0    0    0  0.00000000000E+00  0.00000000000E+00  0.65690001938E+01  0.65690001938E+01  0.00000000000E+00 0. -1.
         22   -1    0    0    0    0 -0.00000000000E+00 -0.00000000000E+00 -0.18177921858E+01  0.18177921858E+01  0.00000000000E+00 0.  1.
          4    1    1    2  501    0  0.18409894522E+01 -0.25951027776E+01  0.29242090041E+01  0.45041868177E+01  0.12700000000E+01 0.  1.
         -4    1    1    2    0  501 -0.18409894522E+01  0.25951027776E+01  0.18269990039E+01  0.38826055619E+01  0.12700000000E+01 0. -1.
<mgrwt>
<rscale>  0 0.34258868E+01</rscale>
<asrwt>0</asrwt>
<pdfrwt beam="1">0</pdfrwt>
<pdfrwt beam="2">0</pdfrwt>
<totfact> 0.13239264E+12</totfact>
</mgrwt>
</event>
<event>
 4    1  0.1750553E+006  0.2034759E+01  0.7546771E-02  0.2957650E+00
         22   -1    0    0    0    0  0.00000000000E+00  0.00000000000E+00  0.17565177713E+01  0.17565177713E+01  0.00000000000E+00 0. -1.
         22   -1    0    0    0    0 -0.00000000000E+00 -0.00000000000E+00 -0.33075451487E+01  0.33075451487E+01  0.00000000000E+00 0. -1.
          4    1    1    2  501    0  0.25331033297E+00 -0.15694517129E+01 -0.21328434116E+01  0.29477560656E+01  0.12700000000E+01 0. -1.
         -4    1    1    2    0  501 -0.25331033297E+00  0.15694517129E+01  0.58181603422E+00  0.21163068543E+01  0.12700000000E+01 0. -1.
<mgrwt>
<rscale>  0 0.20347592E+01</rscale>
<asrwt>0</asrwt>
<pdfrwt beam="1">0</pdfrwt>
<pdfrwt beam="2">0</pdfrwt>
<totfact> 0.30989069E+12</totfact>
</mgrwt>
</event>
<event>
 4    1  0.1750553E+006  0.3147649E+01  0.7546771E-02  0.2477485E+00
         22   -1    0    0    0    0  0.00000000000E+00  0.00000000000E+00  0.12975005873E+01  0.12975005873E+01  0.00000000000E+00 0.  1.
         22   -1    0    0    0    0 -0.00000000000E+00 -0.00000000000E+00 -0.10684911195E+02  0.10684911195E+02  0.00000000000E+00 0. -1.
          4    1    1    2  501    0 -0.28437506656E+01  0.45593383674E+00 -0.14933195771E+01  0.34839197566E+01  0.12700000000E+01 0. -1.
         -4    1    1    2    0  501  0.28437506656E+01 -0.45593383674E+00 -0.78940910310E+01  0.84984920260E+01  0.12700000000E+01 0.  1.
<mgrwt>
<rscale>  0 0.31476489E+01</rscale>
<asrwt>0</asrwt>
<pdfrwt beam="1">0</pdfrwt>
<pdfrwt beam="2">0</pdfrwt>
<totfact> 0.10868769E+12</totfact>
</mgrwt>
</event>
<event>
 4    1  0.1750553E+006  0.2521962E+01  0.7546771E-02  0.2698926E+00
         22   -1    0    0    0    0  0.00000000000E+00  0.00000000000E+00  0.28699589604E+01  0.28699589604E+01  0.00000000000E+00 0. -1.
         22   -1    0    0    0    0 -0.00000000000E+00 -0.00000000000E+00 -0.26344880458E+01  0.26344880458E+01  0.00000000000E+00 0. -1.
          4    1    1    2  501    0  0.20901248319E+01  0.61544260886E+00  0.12144497441E+01  0.27991390817E+01  0.12700000000E+01 0. -1.
         -4    1    1    2    0  501 -0.20901248319E+01 -0.61544260886E+00 -0.97897882953E+00  0.27053079245E+01  0.12700000000E+01 0. -1.
<mgrwt>
<rscale>  0 0.25219618E+01</rscale>
<asrwt>0</asrwt>
<pdfrwt beam="1">0</pdfrwt>
<pdfrwt beam="2">0</pdfrwt>
<totfact> 0.22866193E+12</totfact>
</mgrwt>
</event>
<event>
 4    1  0.1750553E+006  0.2335369E+01  0.7546771E-02  0.2785883E+00
         22   -1    0    0    0    0  0.00000000000E+00  0.00000000000E+00  0.33415342116E+00  0.33415342116E+00  0.00000000000E+00 0. -1.
         22   -1    0    0    0    0 -0.00000000000E+00 -0.00000000000E+00 -0.18593829023E+02  0.18593829023E+02  0.00000000000E+00 0.  1.
          4    1    1    2  501    0 -0.13888777255E+01 -0.13827743558E+01 -0.58215139226E+01  0.62724772305E+01  0.12700000000E+01 0. -1.
         -4    1    1    2    0  501  0.13888777255E+01  0.13827743558E+01 -0.12438161680E+02  0.12655505214E+02  0.12700000000E+01 0.  1.
<mgrwt>
<rscale>  0 0.23353685E+01</rscale>
<asrwt>0</asrwt>
<pdfrwt beam="1">0</pdfrwt>
<pdfrwt beam="2">0</pdfrwt>
<totfact> 0.25652202E+12</totfact>
</mgrwt>
</event>
<event>
 4    1  0.1750553E+006  0.2409693E+01  0.7546771E-02  0.2749734E+00
         22   -1    0    0    0    0  0.00000000000E+00  0.00000000000E+00  0.56208506159E+01  0.56208506159E+01  0.00000000000E+00 0.  1.
         22   -1    0    0    0    0 -0.00000000000E+00 -0.00000000000E+00 -0.10952358359E+01  0.10952358359E+01  0.00000000000E+00 0. -1.
          4    1    1    2  501    0 -0.19020643072E+01 -0.75886109286E+00  0.14626438048E+01  0.28188553859E+01  0.12700000000E+01 0.  1.
         -4    1    1    2    0  501  0.19020643072E+01  0.75886109286E+00  0.30629709752E+01  0.38972310660E+01  0.12700000000E+01 0. -1.
<mgrwt>
<rscale>  0 0.24096927E+01</rscale>
<asrwt>0</asrwt>
<pdfrwt beam="1">0</pdfrwt>
<pdfrwt beam="2">0</pdfrwt>
<totfact> 0.28533859E+12</totfact>
</mgrwt>
</event>
<event>
 4    1  0.1750553E+006  0.2038676E+01  0.7546771E-02  0.2955098E+00
         22   -1    0    0    0    0  0.00000000000E+00  0.00000000000E+00  0.25320200277E+00  0.25320200277E+00  0.00000000000E+00 0.  1.
         22   -1    0    0    0    0 -0.00000000000E+00 -0.00000000000E+00 -0.18196571262E+02  0.18196571262E+02  0.00000000000E+00 0. -1.
          4    1    1    2  501    0  0.13345637452E+01  0.87306331798E+00 -0.60848543808E+01  0.64172932598E+01  0.12700000000E+01 0. -1.
         -4    1    1    2    0  501 -0.13345637452E+01 -0.87306331798E+00 -0.11858514879E+02  0.12032480005E+02  0.12700000000E+01 0.  1.
<mgrwt>
<rscale>  0 0.20386760E+01</rscale>
<asrwt>0</asrwt>
<pdfrwt beam="1">0</pdfrwt>
<pdfrwt beam="2">0</pdfrwt>
<totfact> 0.35956303E+12</totfact>
</mgrwt>
</event>
<event>
 4    1  0.1750553E+006  0.3800984E+01  0.7546771E-02  0.2317031E+00
         22   -1    0    0    0    0  0.00000000000E+00  0.00000000000E+00  0.61573223198E+01  0.61573223198E+01  0.00000000000E+00 0. -1.
         22   -1    0    0    0    0 -0.00000000000E+00 -0.00000000000E+00 -0.31986764349E+01  0.31986764349E+01  0.00000000000E+00 0. -1.
          4    1    1    2  501    0  0.33236676470E+01 -0.13370915690E+01  0.38940483518E+01  0.54416075802E+01  0.12700000000E+01 0. -1.
         -4    1    1    2    0  501 -0.33236676470E+01  0.13370915690E+01 -0.93540246690E+00  0.39143911745E+01  0.12700000000E+01 0. -1.
<mgrwt>
<rscale>  0 0.38009841E+01</rscale>
<asrwt>0</asrwt>
<pdfrwt beam="1">0</pdfrwt>
<pdfrwt beam="2">0</pdfrwt>
<totfact> 0.74150509E+11</totfact>
</mgrwt>
</event>
<event>
 4    1  0.1750553E+006  0.4274171E+01  0.7546771E-02  0.2227761E+00
         22   -1    0    0    0    0  0.00000000000E+00  0.00000000000E+00  0.91658893457E+00  0.91658893457E+00  0.00000000000E+00 0. -1.
         22   -1    0    0    0    0 -0.00000000000E+00 -0.00000000000E+00 -0.19931012370E+02  0.19931012370E+02  0.00000000000E+00 0.  1.
          4    1    1    2  501    0  0.15888524760E+01 -0.37591466547E+01 -0.94996431780E+01  0.10416897632E+02  0.12700000000E+01 0.  1.
         -4    1    1    2    0  501 -0.15888524760E+01  0.37591466547E+01 -0.95147802579E+01  0.10430703673E+02  0.12700000000E+01 0.  1.
<mgrwt>
<rscale>  0 0.42741708E+01</rscale>
<asrwt>0</asrwt>
<pdfrwt beam="1">0</pdfrwt>
<pdfrwt beam="2">0</pdfrwt>
<totfact> 0.75145644E+11</totfact>
</mgrwt>
</event>
<event>
 4    1  0.1750553E+006  0.4075606E+01  0.7546771E-02  0.2263071E+00
         22   -1    0    0    0    0  0.00000000000E+00  0.00000000000E+00  0.98695511471E+00  0.98695511471E+00  0.00000000000E+00 0. -1.
         22   -1    0    0    0    0 -0.00000000000E+00 -0.00000000000E+00 -0.16896843984E+02  0.16896843984E+02  0.00000000000E+00 0.  1.
          4    1    1    2  501    0  0.12053760323E+01 -0.36803173675E+01 -0.85168803664E+01  0.94418122455E+01  0.12700000000E+01 0.  1.
         -4    1    1    2    0  501 -0.12053760323E+01  0.36803173675E+01 -0.73930085027E+01  0.84419868529E+01  0.12700000000E+01 0. -1.
<mgrwt>
<rscale>  0 0.40756064E+01</rscale>
<asrwt>0</asrwt>
<pdfrwt beam="1">0</pdfrwt>
<pdfrwt beam="2">0</pdfrwt>
<totfact> 0.84786166E+11</totfact>
</mgrwt>
</event>
<event>
 4    1  0.1750553E+006  0.2460117E+01  0.7546771E-02  0.2726378E+00
         22   -1    0    0    0    0  0.00000000000E+00  0.00000000000E+00  0.35971959240E+02  0.35971959240E+02  0.00000000000E+00 0. -1.
         22   -1    0    0    0    0 -0.00000000000E+00 -0.00000000000E+00 -0.18821940981E+00  0.18821940981E+00  0.00000000000E+00 0.  1.
          4    1    1    2  501    0  0.15636715966E+01 -0.14121646826E+01  0.12002314991E+02  0.12251846518E+02  0.12700000000E+01 0.  1.
         -4    1    1    2    0  501 -0.15636715966E+01  0.14121646826E+01  0.23781424839E+02  0.23908332132E+02  0.12700000000E+01 0. -1.
<mgrwt>
<rscale>  0 0.24601175E+01</rscale>
<asrwt>0</asrwt>
<pdfrwt beam="1">0</pdfrwt>
<pdfrwt beam="2">0</pdfrwt>
<totfact> 0.21166320E+12</totfact>
</mgrwt>
</event>
<event>
 4    1  0.1750553E+006  0.2010875E+01  0.7546771E-02  0.2973424E+00
         22   -1    0    0    0    0  0.00000000000E+00  0.00000000000E+00  0.27780149330E+00  0.27780149330E+00  0.00000000000E+00 0. -1.
         22   -1    0    0    0    0 -0.00000000000E+00 -0.00000000000E+00 -0.17606628710E+02  0.17606628710E+02  0.00000000000E+00 0.  1.
          4    1    1    2  501    0 -0.79974379476E+00 -0.13383302155E+01 -0.49420634735E+01  0.53355045946E+01  0.12700000000E+01 0.  1.
         -4    1    1    2    0  501  0.79974379476E+00  0.13383302155E+01 -0.12386763743E+02  0.12548925609E+02  0.12700000000E+01 0.  1.
<mgrwt>
<rscale>  0 0.20108749E+01</rscale>
<asrwt>0</asrwt>
<pdfrwt beam="1">0</pdfrwt>
<pdfrwt beam="2">0</pdfrwt>
<totfact> 0.33763471E+12</totfact>
</mgrwt>
</event>
<event>
 4    1  0.1750553E+006  0.2270768E+01  0.7546771E-02  0.2819116E+00
         22   -1    0    0    0    0  0.00000000000E+00  0.00000000000E+00  0.59479791261E+00  0.59479791261E+00  0.00000000000E+00 0. -1.
         22   -1    0    0    0    0 -0.00000000000E+00 -0.00000000000E+00 -0.98369231263E+01  0.98369231263E+01  0.00000000000E+00 0.  1.
          4    1    1    2  501    0  0.16832919639E+01 -0.84262376156E+00 -0.64181837182E+01  0.68080444240E+01  0.12700000000E+01 0.  1.
         -4    1    1    2    0  501 -0.16832919639E+01  0.84262376156E+00 -0.28239414955E+01  0.36236766149E+01  0.12700000000E+01 0. -1.
<mgrwt>
<rscale>  0 0.22707679E+01</rscale>
<asrwt>0</asrwt>
<pdfrwt beam="1">0</pdfrwt>
<pdfrwt beam="2">0</pdfrwt>
<totfact> 0.29220430E+12</totfact>
</mgrwt>
</event>
<event>
 4    1  0.1750553E+006  0.2611997E+01  0.7546771E-02  0.2661123E+00
         22   -1    0    0    0    0  0.00000000000E+00  0.00000000000E+00  0.54093661318E+00  0.54093661318E+00  0.00000000000E+00 0.  1.
         22   -1    0    0    0    0 -0.00000000000E+00 -0.00000000000E+00 -0.13239609668E+02  0.13239609668E+02  0.00000000000E+00 0. -1.
          4    1    1    2  501    0 -0.17110820754E+01 -0.15105713834E+01 -0.78489977643E+01  0.82722000505E+01  0.12700000000E+01 0.  1.
         -4    1    1    2    0  501  0.17110820754E+01  0.15105713834E+01 -0.48496752910E+01  0.55083462311E+01  0.12700000000E+01 0. -1.
<mgrwt>
<rscale>  0 0.26119969E+01</rscale>
<asrwt>0</asrwt>
<pdfrwt beam="1">0</pdfrwt>
<pdfrwt beam="2">0</pdfrwt>
<totfact> 0.22663474E+12</totfact>
</mgrwt>
</event>
<event>
 4    1  0.1750553E+006  0.2595284E+01  0.7546771E-02  0.2667957E+00
         22   -1    0    0    0    0  0.00000000000E+00  0.00000000000E+00  0.32230027120E+01  0.32230027120E+01  0.00000000000E+00 0. -1.
         22   -1    0    0    0    0 -0.00000000000E+00 -0.00000000000E+00 -0.35025453843E+01  0.35025453843E+01  0.00000000000E+00 0.  1.
          4    1    1    2  501    0  0.12605524054E+01  0.18797890680E+01  0.19959003776E+01  0.32740063568E+01  0.12700000000E+01 0. -1.
         -4    1    1    2    0  501 -0.12605524054E+01 -0.18797890680E+01 -0.22754430498E+01  0.34515417395E+01  0.12700000000E+01 0.  1.
<mgrwt>
<rscale>  0 0.25952841E+01</rscale>
<asrwt>0</asrwt>
<pdfrwt beam="1">0</pdfrwt>
<pdfrwt beam="2">0</pdfrwt>
<totfact> 0.14314573E+12</totfact>
</mgrwt>
</event>
<event>
 4    1  0.1750553E+006  0.2224331E+01  0.7546771E-02  0.2844139E+00
         22   -1    0    0    0    0  0.00000000000E+00  0.00000000000E+00  0.44748594253E+02  0.44748594253E+02  0.00000000000E+00 0. -1.
         22   -1    0    0    0    0 -0.00000000000E+00 -0.00000000000E+00 -0.11243149215E+00  0.11243149215E+00  0.00000000000E+00 0. -1.
          4    1    1    2  501    0 -0.99248288538E+00 -0.15328815272E+01  0.25207809589E+02  0.25305756506E+02  0.12700000000E+01 0. -1.
         -4    1    1    2    0  501  0.99248288538E+00  0.15328815272E+01  0.19428353172E+02  0.19555269239E+02  0.12700000000E+01 0. -1.
<mgrwt>
<rscale>  0 0.22243309E+01</rscale>
<asrwt>0</asrwt>
<pdfrwt beam="1">0</pdfrwt>
<pdfrwt beam="2">0</pdfrwt>
<totfact> 0.28265989E+12</totfact>
</mgrwt>
</event>
<event>
 4    1  0.1750553E+006  0.2029047E+01  0.7546771E-02  0.2961390E+00
         22   -1    0    0    0    0  0.00000000000E+00  0.00000000000E+00  0.24972497137E+01  0.24972497137E+01  0.00000000000E+00 0. -1.
         22   -1    0    0    0    0 -0.00000000000E+00 -0.00000000000E+00 -0.16992366271E+01  0.16992366271E+01  0.00000000000E+00 0.  1.
          4    1    1    2  501    0 -0.14908133738E+01  0.53066774834E+00  0.76112141876E+00  0.21671037328E+01  0.12700000000E+01 0. -1.
         -4    1    1    2    0  501  0.14908133738E+01 -0.53066774834E+00  0.36891667778E-01  0.20293826080E+01  0.12700000000E+01 0.  1.
<mgrwt>
<rscale>  0 0.20290473E+01</rscale>
<asrwt>0</asrwt>
<pdfrwt beam="1">0</pdfrwt>
<pdfrwt beam="2">0</pdfrwt>
<totfact> 0.44694133E+12</totfact>
</mgrwt>
</event>
<event>
 4    1  0.1750553E+006  0.2089761E+01  0.7546771E-02  0.2922664E+00
         22   -1    0    0    0    0  0.00000000000E+00  0.00000000000E+00  0.34905611328E+01  0.34905611328E+01  0.00000000000E+00 0.  1.
         22   -1    0    0    0    0 -0.00000000000E+00 -0.00000000000E+00 -0.31060372280E+01  0.31060372280E+01  0.00000000000E+00 0.  1.
          4    1    1    2  501    0  0.16253481570E+01 -0.33532641770E+00  0.27411416316E+01  0.34468765400E+01  0.12700000000E+01 0.  1.
         -4    1    1    2    0  501 -0.16253481570E+01  0.33532641770E+00 -0.23566177269E+01  0.31497218208E+01  0.12700000000E+01 0.  1.
<mgrwt>
<rscale>  0 0.20897609E+01</rscale>
<asrwt>0</asrwt>
<pdfrwt beam="1">0</pdfrwt>
<pdfrwt beam="2">0</pdfrwt>
<totfact> 0.15006184E+12</totfact>
</mgrwt>
</event>
<event>
 4    1  0.1750553E+006  0.3303138E+01  0.7546771E-02  0.2434275E+00
         22   -1    0    0    0    0  0.00000000000E+00  0.00000000000E+00  0.31118207549E+01  0.31118207549E+01  0.00000000000E+00 0. -1.
         22   -1    0    0    0    0 -0.00000000000E+00 -0.00000000000E+00 -0.35104936981E+01  0.35104936981E+01  0.00000000000E+00 0. -1.
          4    1    1    2  501    0  0.19246964935E+01 -0.23650289848E+01 -0.83764560009E-01  0.33041996296E+01  0.12700000000E+01 0. -1.
         -4    1    1    2    0  501 -0.19246964935E+01  0.23650289848E+01 -0.31490838328E+00  0.33181148233E+01  0.12700000000E+01 0. -1.
<mgrwt>
<rscale>  0 0.33031377E+01</rscale>
<asrwt>0</asrwt>
<pdfrwt beam="1">0</pdfrwt>
<pdfrwt beam="2">0</pdfrwt>
<totfact> 0.14875306E+12</totfact>
</mgrwt>
</event>
<event>
 4    1  0.1750553E+006  0.2663615E+01  0.7546771E-02  0.2640515E+00
         22   -1    0    0    0    0  0.00000000000E+00  0.00000000000E+00  0.57460338727E+01  0.57460338727E+01  0.00000000000E+00 0.  1.
         22   -1    0    0    0    0 -0.00000000000E+00 -0.00000000000E+00 -0.30633900617E+01  0.30633900617E+01  0.00000000000E+00 0. -1.
          4    1    1    2  501    0  0.88387398973E+00 -0.21681129379E+01  0.47444781833E+01  0.54410403576E+01  0.12700000000E+01 0.  1.
         -4    1    1    2    0  501 -0.88387398973E+00  0.21681129379E+01 -0.20618343723E+01  0.33683835768E+01  0.12700000000E+01 0. -1.
<mgrwt>
<rscale>  0 0.26636154E+01</rscale>
<asrwt>0</asrwt>
<pdfrwt beam="1">0</pdfrwt>
<pdfrwt beam="2">0</pdfrwt>
<totfact> 0.84680617E+11</totfact>
</mgrwt>
</event>
<event>
 4    1  0.1750553E+006  0.3638878E+01  0.7546771E-02  0.2352141E+00
         22   -1    0    0    0    0  0.00000000000E+00  0.00000000000E+00  0.65824772260E+00  0.65824772260E+00  0.00000000000E+00 0. -1.
         22   -1    0    0    0    0 -0.00000000000E+00 -0.00000000000E+00 -0.22738807620E+02  0.22738807620E+02  0.00000000000E+00 0. -1.
          4    1    1    2  501    0  0.33964330109E+01 -0.30458584079E+00 -0.15013253471E+02  0.15447951629E+02  0.12700000000E+01 0. -1.
         -4    1    1    2    0  501 -0.33964330109E+01  0.30458584079E+00 -0.70673064258E+01  0.79491037135E+01  0.12700000000E+01 0. -1.
<mgrwt>
<rscale>  0 0.36388775E+01</rscale>
<asrwt>0</asrwt>
<pdfrwt beam="1">0</pdfrwt>
<pdfrwt beam="2">0</pdfrwt>
<totfact> 0.92853671E+11</totfact>
</mgrwt>
</event>
<event>
 4    1  0.1750553E+006  0.2103277E+01  0.7546771E-02  0.2914339E+00
         22   -1    0    0    0    0  0.00000000000E+00  0.00000000000E+00  0.43932046447E+01  0.43932046447E+01  0.00000000000E+00 0.  1.
         22   -1    0    0    0    0 -0.00000000000E+00 -0.00000000000E+00 -0.10217610800E+01  0.10217610800E+01  0.00000000000E+00 0.  1.
          4    1    1    2  501    0 -0.14249683226E+01 -0.88336758158E+00  0.20116077092E+01  0.29103846103E+01  0.12700000000E+01 0.  1.
         -4    1    1    2    0  501  0.14249683226E+01  0.88336758158E+00  0.13598358555E+01  0.25045811144E+01  0.12700000000E+01 0.  1.
<mgrwt>
<rscale>  0 0.21032767E+01</rscale>
<asrwt>0</asrwt>
<pdfrwt beam="1">0</pdfrwt>
<pdfrwt beam="2">0</pdfrwt>
<totfact> 0.41352867E+12</totfact>
</mgrwt>
</event>
<event>
 4    1  0.1750553E+006  0.4130417E+01  0.7546771E-02  0.2253037E+00
         22   -1    0    0    0    0  0.00000000000E+00  0.00000000000E+00  0.15609377562E+01  0.15609377562E+01  0.00000000000E+00 0. -1.
         22   -1    0    0    0    0 -0.00000000000E+00 -0.00000000000E+00 -0.11090972579E+02  0.11090972579E+02  0.00000000000E+00 0.  1.
          4    1    1    2  501    0  0.37733225021E+01 -0.10997650718E+01 -0.40018416218E+01  0.57510940076E+01  0.12700000000E+01 0. -1.
         -4    1    1    2    0  501 -0.37733225021E+01  0.10997650718E+01 -0.55281932007E+01  0.69008163272E+01  0.12700000000E+01 0.  1.
<mgrwt>
<rscale>  0 0.41304172E+01</rscale>
<asrwt>0</asrwt>
<pdfrwt beam="1">0</pdfrwt>
<pdfrwt beam="2">0</pdfrwt>
<totfact> 0.83990392E+11</totfact>
</mgrwt>
</event>
<event>
 4    1  0.1750553E+006  0.2245408E+01  0.7546771E-02  0.2832660E+00
         22   -1    0    0    0    0  0.00000000000E+00  0.00000000000E+00  0.30029205696E+00  0.30029205696E+00  0.00000000000E+00 0.  1.
         22   -1    0    0    0    0 -0.00000000000E+00 -0.00000000000E+00 -0.19542560212E+02  0.19542560212E+02  0.00000000000E+00 0. -1.
          4    1    1    2  501    0 -0.18063977116E+01  0.40728893728E+00 -0.58975252855E+01  0.63105199044E+01  0.12700000000E+01 0.  1.
         -4    1    1    2    0  501  0.18063977116E+01 -0.40728893728E+00 -0.13344742870E+02  0.13532332365E+02  0.12700000000E+01 0. -1.
<mgrwt>
<rscale>  0 0.22454080E+01</rscale>
<asrwt>0</asrwt>
<pdfrwt beam="1">0</pdfrwt>
<pdfrwt beam="2">0</pdfrwt>
<totfact> 0.27182859E+12</totfact>
</mgrwt>
</event>
<event>
 4    1  0.1750553E+006  0.2032912E+01  0.7546771E-02  0.2958858E+00
         22   -1    0    0    0    0  0.00000000000E+00  0.00000000000E+00  0.60132476308E+00  0.60132476308E+00  0.00000000000E+00 0. -1.
         22   -1    0    0    0    0 -0.00000000000E+00 -0.00000000000E+00 -0.17008394959E+02  0.17008394959E+02  0.00000000000E+00 0.  1.
          4    1    1    2  501    0  0.60234941424E+00  0.14686743928E+01 -0.14065333081E+01  0.24720568836E+01  0.12700000000E+01 0. -1.
         -4    1    1    2    0  501 -0.60234941424E+00 -0.14686743928E+01 -0.15000536888E+02  0.15137662839E+02  0.12700000000E+01 0.  1.
<mgrwt>
<rscale>  0 0.20329115E+01</rscale>
<asrwt>0</asrwt>
<pdfrwt beam="1">0</pdfrwt>
<pdfrwt beam="2">0</pdfrwt>
<totfact> 0.14770370E+12</totfact>
</mgrwt>
</event>
<event>
 4    1  0.1750553E+006  0.2046122E+01  0.7546771E-02  0.2950272E+00
         22   -1    0    0    0    0  0.00000000000E+00  0.00000000000E+00  0.35353976086E+02  0.35353976086E+02  0.00000000000E+00 0.  1.
         22   -1    0    0    0    0 -0.00000000000E+00 -0.00000000000E+00 -0.32654096490E+00  0.32654096490E+00  0.00000000000E+00 0. -1.
          4    1    1    2  501    0  0.14079753693E+01 -0.76897477860E+00  0.31756349536E+02  0.31822199056E+02  0.12700000000E+01 0.  1.
         -4    1    1    2    0  501 -0.14079753693E+01  0.76897477860E+00  0.32710855843E+01  0.38583179950E+01  0.12700000000E+01 0. -1.
<mgrwt>
<rscale>  0 0.20461224E+01</rscale>
<asrwt>0</asrwt>
<pdfrwt beam="1">0</pdfrwt>
<pdfrwt beam="2">0</pdfrwt>
<totfact> 0.11685877E+12</totfact>
</mgrwt>
</event>
<event>
 4    1  0.1750553E+006  0.2362043E+01  0.7546771E-02  0.2772663E+00
         22   -1    0    0    0    0  0.00000000000E+00  0.00000000000E+00  0.12203405866E+01  0.12203405866E+01  0.00000000000E+00 0.  1.
         22   -1    0    0    0    0 -0.00000000000E+00 -0.00000000000E+00 -0.46503669572E+01  0.46503669572E+01  0.00000000000E+00 0. -1.
          4    1    1    2  501    0  0.18994868287E+01 -0.59857917059E+00 -0.13336634180E+01  0.27125459164E+01  0.12700000000E+01 0.  1.
         -4    1    1    2    0  501 -0.18994868287E+01  0.59857917059E+00 -0.20963629526E+01  0.31581616274E+01  0.12700000000E+01 0. -1.
<mgrwt>
<rscale>  0 0.23620430E+01</rscale>
<asrwt>0</asrwt>
<pdfrwt beam="1">0</pdfrwt>
<pdfrwt beam="2">0</pdfrwt>
<totfact> 0.31557385E+12</totfact>
</mgrwt>
</event>
<event>
 4    1  0.1750553E+006  0.2697297E+01  0.7546771E-02  0.2627460E+00
         22   -1    0    0    0    0  0.00000000000E+00  0.00000000000E+00  0.65470211683E+02  0.65470211683E+02  0.00000000000E+00 0.  1.
         22   -1    0    0    0    0 -0.00000000000E+00 -0.00000000000E+00 -0.18167509702E+00  0.18167509702E+00  0.00000000000E+00 0. -1.
          4    1    1    2  501    0 -0.45710242200E-01  0.23791641519E+01  0.53100079884E+02  0.53168542346E+02  0.12700000000E+01 0.  1.
         -4    1    1    2    0  501  0.45710242200E-01 -0.23791641519E+01  0.12188456702E+02  0.12483344434E+02  0.12700000000E+01 0. -1.
<mgrwt>
<rscale>  0 0.26972971E+01</rscale>
<asrwt>0</asrwt>
<pdfrwt beam="1">0</pdfrwt>
<pdfrwt beam="2">0</pdfrwt>
<totfact> 0.10006975E+12</totfact>
</mgrwt>
</event>
<event>
 4    1  0.1750553E+006  0.2289955E+01  0.7546771E-02  0.2809060E+00
         22   -1    0    0    0    0  0.00000000000E+00  0.00000000000E+00  0.13243532011E+01  0.13243532011E+01  0.00000000000E+00 0. -1.
         22   -1    0    0    0    0 -0.00000000000E+00 -0.00000000000E+00 -0.67892276186E+01  0.67892276186E+01  0.00000000000E+00 0.  1.
          4    1    1    2  501    0  0.46979814429E+00  0.18466952375E+01 -0.11342261798E+00  0.22927621522E+01  0.12700000000E+01 0. -1.
         -4    1    1    2    0  501 -0.46979814429E+00 -0.18466952375E+01 -0.53514517996E+01  0.58208186675E+01  0.12700000000E+01 0.  1.
<mgrwt>
<rscale>  0 0.22899549E+01</rscale>
<asrwt>0</asrwt>
<pdfrwt beam="1">0</pdfrwt>
<pdfrwt beam="2">0</pdfrwt>
<totfact> 0.18327601E+12</totfact>
</mgrwt>
</event>
<event>
 4    1  0.1750553E+006  0.2067982E+01  0.7546771E-02  0.2936301E+00
         22   -1    0    0    0    0  0.00000000000E+00  0.00000000000E+00  0.27142428334E+00  0.27142428334E+00  0.00000000000E+00 0.  1.
         22   -1    0    0    0    0 -0.00000000000E+00 -0.00000000000E+00 -0.22117885992E+02  0.22117885992E+02  0.00000000000E+00 0. -1.
          4    1    1    2  501    0 -0.12804358323E+01 -0.10119948422E+01 -0.49193328975E+01  0.53363269801E+01  0.12700000000E+01 0.  1.
         -4    1    1    2    0  501  0.12804358323E+01  0.10119948422E+01 -0.16927128812E+02  0.17052983296E+02  0.12700000000E+01 0. -1.
<mgrwt>
<rscale>  0 0.20679820E+01</rscale>
<asrwt>0</asrwt>
<pdfrwt beam="1">0</pdfrwt>
<pdfrwt beam="2">0</pdfrwt>
<totfact> 0.26078936E+12</totfact>
</mgrwt>
</event>
<event>
 4    1  0.1750553E+006  0.3721509E+01  0.7546771E-02  0.2333914E+00
         22   -1    0    0    0    0  0.00000000000E+00  0.00000000000E+00  0.18945634374E+02  0.18945634374E+02  0.00000000000E+00 0. -1.
         22   -1    0    0    0    0 -0.00000000000E+00 -0.00000000000E+00 -0.12037278439E+01  0.12037278439E+01  0.00000000000E+00 0.  1.
          4    1    1    2  501    0  0.26808538967E+01  0.22471644992E+01  0.15184361090E+02  0.15633759868E+02  0.12700000000E+01 0. -1.
         -4    1    1    2    0  501 -0.26808538967E+01 -0.22471644992E+01  0.25575454397E+01  0.45156023494E+01  0.12700000000E+01 0.  1.
<mgrwt>
<rscale>  0 0.37215086E+01</rscale>
<asrwt>0</asrwt>
<pdfrwt beam="1">0</pdfrwt>
<pdfrwt beam="2">0</pdfrwt>
<totfact> 0.58620377E+11</totfact>
</mgrwt>
</event>
<event>
 4    1  0.1750553E+006  0.2420437E+01  0.7546771E-02  0.2744681E+00
         22   -1    0    0    0    0  0.00000000000E+00  0.00000000000E+00  0.25860533832E+00  0.25860533832E+00  0.00000000000E+00 0. -1.
         22   -1    0    0    0    0 -0.00000000000E+00 -0.00000000000E+00 -0.24813130382E+02  0.24813130382E+02  0.00000000000E+00 0.  1.
          4    1    1    2  501    0 -0.20528622092E+01 -0.17712061875E+00 -0.85796109909E+01  0.89144960440E+01  0.12700000000E+01 0.  1.
         -4    1    1    2    0  501  0.20528622092E+01  0.17712061875E+00 -0.15974914053E+02  0.16157239676E+02  0.12700000000E+01 0. -1.
<mgrwt>
<rscale>  0 0.24204369E+01</rscale>
<asrwt>0</asrwt>
<pdfrwt beam="1">0</pdfrwt>
<pdfrwt beam="2">0</pdfrwt>
<totfact> 0.23826989E+12</totfact>
</mgrwt>
</event>
<event>
 4    1  0.1750553E+006  0.2287786E+01  0.7546771E-02  0.2810189E+00
         22   -1    0    0    0    0  0.00000000000E+00  0.00000000000E+00  0.41001120213E+00  0.41001120213E+00  0.00000000000E+00 0.  1.
         22   -1    0    0    0    0 -0.00000000000E+00 -0.00000000000E+00 -0.13577217501E+02  0.13577217501E+02  0.00000000000E+00 0. -1.
          4    1    1    2  501    0  0.56758173079E+00  0.18162921038E+01 -0.48735106269E+01  0.53837785855E+01  0.12700000000E+01 0.  1.
         -4    1    1    2    0  501 -0.56758173079E+00 -0.18162921038E+01 -0.82936956723E+01  0.86034501179E+01  0.12700000000E+01 0. -1.
<mgrwt>
<rscale>  0 0.22877863E+01</rscale>
<asrwt>0</asrwt>
<pdfrwt beam="1">0</pdfrwt>
<pdfrwt beam="2">0</pdfrwt>
<totfact> 0.30040388E+12</totfact>
</mgrwt>
</event>
<event>
 4    1  0.1750553E+006  0.2124373E+01  0.7546771E-02  0.2901550E+00
         22   -1    0    0    0    0  0.00000000000E+00  0.00000000000E+00  0.19712813080E+02  0.19712813080E+02  0.00000000000E+00 0.  1.
         22   -1    0    0    0    0 -0.00000000000E+00 -0.00000000000E+00 -0.23029914270E+00  0.23029914270E+00  0.00000000000E+00 0.  1.
          4    1    1    2  501    0  0.33145276502E+00 -0.16703897237E+01  0.10508559629E+02  0.10721137451E+02  0.12700000000E+01 0.  1.
         -4    1    1    2    0  501 -0.33145276502E+00  0.16703897237E+01  0.89739543079E+01  0.92219747714E+01  0.12700000000E+01 0.  1.
<mgrwt>
<rscale>  0 0.21243735E+01</rscale>
<asrwt>0</asrwt>
<pdfrwt beam="1">0</pdfrwt>
<pdfrwt beam="2">0</pdfrwt>
<totfact> 0.36190587E+12</totfact>
</mgrwt>
</event>
<event>
 4    1  0.1750553E+006  0.2448653E+01  0.7546771E-02  0.2731609E+00
         22   -1    0    0    0    0  0.00000000000E+00  0.00000000000E+00  0.11448406838E+01  0.11448406838E+01  0.00000000000E+00 0.  1.
         22   -1    0    0    0    0 -0.00000000000E+00 -0.00000000000E+00 -0.77829110040E+01  0.77829110040E+01  0.00000000000E+00 0.  1.
          4    1    1    2  501    0 -0.17616035183E-01  0.20934879401E+01 -0.58719422568E+01  0.63620443214E+01  0.12700000000E+01 0.  1.
         -4    1    1    2    0  501  0.17616035183E-01 -0.20934879401E+01 -0.76612806338E+00  0.25657073663E+01  0.12700000000E+01 0.  1.
<mgrwt>
<rscale>  0 0.24486531E+01</rscale>
<asrwt>0</asrwt>
<pdfrwt beam="1">0</pdfrwt>
<pdfrwt beam="2">0</pdfrwt>
<totfact> 0.18390003E+12</totfact>
</mgrwt>
</event>
<event>
 4    1  0.1750553E+006  0.2485292E+01  0.7546771E-02  0.2715050E+00
         22   -1    0    0    0    0  0.00000000000E+00  0.00000000000E+00  0.28214864897E+01  0.28214864897E+01  0.00000000000E+00 0.  1.
         22   -1    0    0    0    0 -0.00000000000E+00 -0.00000000000E+00 -0.57042884410E+01  0.57042884410E+01  0.00000000000E+00 0. -1.
          4    1    1    2  501    0  0.21280506231E+01 -0.18755965569E+00  0.19049684827E+01  0.31313867533E+01  0.12700000000E+01 0.  1.
         -4    1    1    2    0  501 -0.21280506231E+01  0.18755965569E+00 -0.47877704340E+01  0.53943881773E+01  0.12700000000E+01 0. -1.
<mgrwt>
<rscale>  0 0.24852924E+01</rscale>
<asrwt>0</asrwt>
<pdfrwt beam="1">0</pdfrwt>
<pdfrwt beam="2">0</pdfrwt>
<totfact> 0.94027659E+11</totfact>
</mgrwt>
</event>
<event>
 4    1  0.1750553E+006  0.3057032E+01  0.7546771E-02  0.2504459E+00
         22   -1    0    0    0    0  0.00000000000E+00  0.00000000000E+00  0.13007049424E+01  0.13007049424E+01  0.00000000000E+00 0. -1.
         22   -1    0    0    0    0 -0.00000000000E+00 -0.00000000000E+00 -0.84375494615E+01  0.84375494615E+01  0.00000000000E+00 0.  1.
          4    1    1    2  501    0  0.23396822840E+01  0.15028072165E+01 -0.16923191828E+01  0.34941933170E+01  0.12700000000E+01 0. -1.
         -4    1    1    2    0  501 -0.23396822840E+01 -0.15028072165E+01 -0.54445253363E+01  0.62440610870E+01  0.12700000000E+01 0.  1.
<mgrwt>
<rscale>  0 0.30570317E+01</rscale>
<asrwt>0</asrwt>
<pdfrwt beam="1">0</pdfrwt>
<pdfrwt beam="2">0</pdfrwt>
<totfact> 0.14417965E+12</totfact>
</mgrwt>
</event>
<event>
 4    1  0.1750553E+006  0.2410442E+01  0.7546771E-02  0.2749380E+00
         22   -1    0    0    0    0  0.00000000000E+00  0.00000000000E+00  0.31674023670E+01  0.31674023670E+01  0.00000000000E+00 0.  1.
         22   -1    0    0    0    0 -0.00000000000E+00 -0.00000000000E+00 -0.19239131661E+01  0.19239131661E+01  0.00000000000E+00 0.  1.
          4    1    1    2  501    0  0.17328573500E+01  0.10929477990E+01  0.11708954369E+01  0.26797808886E+01  0.12700000000E+01 0.  1.
         -4    1    1    2    0  501 -0.17328573500E+01 -0.10929477990E+01  0.72593763906E-01  0.24115346445E+01  0.12700000000E+01 0.  1.
<mgrwt>
<rscale>  0 0.24104418E+01</rscale>
<asrwt>0</asrwt>
<pdfrwt beam="1">0</pdfrwt>
<pdfrwt beam="2">0</pdfrwt>
<totfact> 0.29347453E+12</totfact>
</mgrwt>
</event>
<event>
 4    1  0.1750553E+006  0.2168178E+01  0.7546771E-02  0.2875765E+00
         22   -1    0    0    0    0  0.00000000000E+00  0.00000000000E+00  0.32406978363E+01  0.32406978363E+01  0.00000000000E+00 0.  1.
         22   -1    0    0    0    0 -0.00000000000E+00 -0.00000000000E+00 -0.18118218850E+01  0.18118218850E+01  0.00000000000E+00 0. -1.
          4    1    1    2  501    0  0.16349402309E+01  0.64425481171E+00  0.18424152106E+01  0.28452570410E+01  0.12700000000E+01 0.  1.
         -4    1    1    2    0  501 -0.16349402309E+01 -0.64425481171E+00 -0.41353925936E+00  0.22072626804E+01  0.12700000000E+01 0. -1.
<mgrwt>
<rscale>  0 0.21681775E+01</rscale>
<asrwt>0</asrwt>
<pdfrwt beam="1">0</pdfrwt>
<pdfrwt beam="2">0</pdfrwt>
<totfact> 0.30623883E+12</totfact>
</mgrwt>
</event>
<event>
 4    1  0.1750553E+006  0.5491304E+01  0.7546771E-02  0.2068555E+00
         22   -1    0    0    0    0  0.00000000000E+00  0.00000000000E+00  0.23133511782E+01  0.23133511782E+01  0.00000000000E+00 0.  1.
         22   -1    0    0    0    0 -0.00000000000E+00 -0.00000000000E+00 -0.14808484925E+02  0.14808484925E+02  0.00000000000E+00 0. -1.
          4    1    1    2  501    0  0.12858619391E+01 -0.51853713268E+01 -0.32848857523E+01  0.63988195106E+01  0.12700000000E+01 0.  1.
         -4    1    1    2    0  501 -0.12858619391E+01  0.51853713268E+01 -0.92102479943E+01  0.10723016592E+02  0.12700000000E+01 0. -1.
<mgrwt>
<rscale>  0 0.54913037E+01</rscale>
<asrwt>0</asrwt>
<pdfrwt beam="1">0</pdfrwt>
<pdfrwt beam="2">0</pdfrwt>
<totfact> 0.37427548E+11</totfact>
</mgrwt>
</event>
<event>
 4    1  0.1750553E+006  0.5499493E+01  0.7546771E-02  0.2067713E+00
         22   -1    0    0    0    0  0.00000000000E+00  0.00000000000E+00  0.32472966364E+01  0.32472966364E+01  0.00000000000E+00 0.  1.
         22   -1    0    0    0    0 -0.00000000000E+00 -0.00000000000E+00 -0.11037709558E+02  0.11037709558E+02  0.00000000000E+00 0. -1.
          4    1    1    2  501    0  0.40413907709E+01  0.35069474967E+01 -0.10724205377E+01  0.56030800385E+01  0.12700000000E+01 0.  1.
         -4    1    1    2    0  501 -0.40413907709E+01 -0.35069474967E+01 -0.67179923839E+01  0.86819261560E+01  0.12700000000E+01 0. -1.
<mgrwt>
<rscale>  0 0.54994927E+01</rscale>
<asrwt>0</asrwt>
<pdfrwt beam="1">0</pdfrwt>
<pdfrwt beam="2">0</pdfrwt>
<totfact> 0.36102173E+11</totfact>
</mgrwt>
</event>
<event>
 4    1  0.1750553E+006  0.2149989E+01  0.7546771E-02  0.2886348E+00
         22   -1    0    0    0    0  0.00000000000E+00  0.00000000000E+00  0.12255643892E+01  0.12255643892E+01  0.00000000000E+00 0. -1.
         22   -1    0    0    0    0 -0.00000000000E+00 -0.00000000000E+00 -0.11730693141E+02  0.11730693141E+02  0.00000000000E+00 0.  1.
          4    1    1    2  501    0  0.16915821184E+01 -0.38484244458E+00  0.83449739546E-01  0.21516081496E+01  0.12700000000E+01 0. -1.
         -4    1    1    2    0  501 -0.16915821184E+01  0.38484244458E+00 -0.10588578492E+02  0.10804649381E+02  0.12700000000E+01 0.  1.
<mgrwt>
<rscale>  0 0.21499892E+01</rscale>
<asrwt>0</asrwt>
<pdfrwt beam="1">0</pdfrwt>
<pdfrwt beam="2">0</pdfrwt>
<totfact> 0.10357130E+12</totfact>
</mgrwt>
</event>
<event>
 4    1  0.1750553E+006  0.2439727E+01  0.7546771E-02  0.2735714E+00
         22   -1    0    0    0    0  0.00000000000E+00  0.00000000000E+00  0.10170570590E+02  0.10170570590E+02  0.00000000000E+00 0.  1.
         22   -1    0    0    0    0 -0.00000000000E+00 -0.00000000000E+00 -0.97554076445E+00  0.97554076445E+00  0.00000000000E+00 0. -1.
          4    1    1    2  501    0  0.30772152921E+00  0.20602613432E+01  0.81225864235E+01  0.84810777351E+01  0.12700000000E+01 0.  1.
         -4    1    1    2    0  501 -0.30772152921E+00 -0.20602613432E+01  0.10724434021E+01  0.26650336194E+01  0.12700000000E+01 0. -1.
<mgrwt>
<rscale>  0 0.24397273E+01</rscale>
<asrwt>0</asrwt>
<pdfrwt beam="1">0</pdfrwt>
<pdfrwt beam="2">0</pdfrwt>
<totfact> 0.15991846E+12</totfact>
</mgrwt>
</event>
<event>
 4    1  0.1750553E+006  0.2004301E+01  0.7546771E-02  0.2977831E+00
         22   -1    0    0    0    0  0.00000000000E+00  0.00000000000E+00  0.68786928708E+00  0.68786928708E+00  0.00000000000E+00 0. -1.
         22   -1    0    0    0    0 -0.00000000000E+00 -0.00000000000E+00 -0.71356922787E+01  0.71356922787E+01  0.00000000000E+00 0.  1.
          4    1    1    2  501    0 -0.10285664894E+01  0.11603334037E+01 -0.15570814963E+01  0.25380554401E+01  0.12700000000E+01 0. -1.
         -4    1    1    2    0  501  0.10285664894E+01 -0.11603334037E+01 -0.48907414953E+01  0.52855061257E+01  0.12700000000E+01 0.  1.
<mgrwt>
<rscale>  0 0.20043010E+01</rscale>
<asrwt>0</asrwt>
<pdfrwt beam="1">0</pdfrwt>
<pdfrwt beam="2">0</pdfrwt>
<totfact> 0.36464637E+12</totfact>
</mgrwt>
</event>
<event>
 4    1  0.1750553E+006  0.3189180E+01  0.7546771E-02  0.2465579E+00
         22   -1    0    0    0    0  0.00000000000E+00  0.00000000000E+00  0.42571518179E+01  0.42571518179E+01  0.00000000000E+00 0. -1.
         22   -1    0    0    0    0 -0.00000000000E+00 -0.00000000000E+00 -0.88868410104E+01  0.88868410104E+01  0.00000000000E+00 0.  1.
          4    1    1    2  501    0 -0.16273002058E+01 -0.24310207450E+01  0.33047369245E+01  0.45926195099E+01  0.12700000000E+01 0. -1.
         -4    1    1    2    0  501  0.16273002058E+01  0.24310207450E+01 -0.79344261171E+01  0.85513733184E+01  0.12700000000E+01 0.  1.
<mgrwt>
<rscale>  0 0.31891798E+01</rscale>
<asrwt>0</asrwt>
<pdfrwt beam="1">0</pdfrwt>
<pdfrwt beam="2">0</pdfrwt>
<totfact> 0.34147362E+11</totfact>
</mgrwt>
</event>
<event>
 4    1  0.1750553E+006  0.3213076E+01  0.7546771E-02  0.2458852E+00
         22   -1    0    0    0    0  0.00000000000E+00  0.00000000000E+00  0.38262038531E+01  0.38262038531E+01  0.00000000000E+00 0.  1.
         22   -1    0    0    0    0 -0.00000000000E+00 -0.00000000000E+00 -0.27367623674E+01  0.27367623674E+01  0.00000000000E+00 0. -1.
          4    1    1    2  501    0  0.16640880627E+01  0.24375741360E+01  0.93425263432E+00  0.33461447569E+01  0.12700000000E+01 0.  1.
         -4    1    1    2    0  501 -0.16640880627E+01 -0.24375741360E+01  0.15518885134E+00  0.32168214636E+01  0.12700000000E+01 0. -1.
<mgrwt>
<rscale>  0 0.32130759E+01</rscale>
<asrwt>0</asrwt>
<pdfrwt beam="1">0</pdfrwt>
<pdfrwt beam="2">0</pdfrwt>
<totfact> 0.15619663E+12</totfact>
</mgrwt>
</event>
<event>
 4    1  0.1750553E+006  0.2688305E+01  0.7546771E-02  0.2630916E+00
         22   -1    0    0    0    0  0.00000000000E+00  0.00000000000E+00  0.10958033884E+01  0.10958033884E+01  0.00000000000E+00 0. -1.
         22   -1    0    0    0    0 -0.00000000000E+00 -0.00000000000E+00 -0.66387321193E+01  0.66387321193E+01  0.00000000000E+00 0.  1.
          4    1    1    2  501    0 -0.19564089250E+01 -0.13366188243E+01 -0.30848107763E+01  0.40918264002E+01  0.12700000000E+01 0.  1.
         -4    1    1    2    0  501  0.19564089250E+01  0.13366188243E+01 -0.24581179546E+01  0.36427091075E+01  0.12700000000E+01 0. -1.
<mgrwt>
<rscale>  0 0.26883054E+01</rscale>
<asrwt>0</asrwt>
<pdfrwt beam="1">0</pdfrwt>
<pdfrwt beam="2">0</pdfrwt>
<totfact> 0.23389358E+12</totfact>
</mgrwt>
</event>
<event>
 4    1  0.1750553E+006  0.9053334E+01  0.7546771E-02  0.1820887E+00
         22   -1    0    0    0    0  0.00000000000E+00  0.00000000000E+00  0.68819506511E+02  0.68819506511E+02  0.00000000000E+00 0. -1.
         22   -1    0    0    0    0 -0.00000000000E+00 -0.00000000000E+00 -0.12017122816E+01  0.12017122816E+01  0.00000000000E+00 0.  1.
          4    1    1    2  501    0 -0.89591023033E+01  0.29060253155E+00  0.30500754108E+02  0.31816015858E+02  0.12700000000E+01 0.  1.
         -4    1    1    2    0  501  0.89591023033E+01 -0.29060253155E+00  0.37117040121E+02  0.38205202935E+02  0.12700000000E+01 0. -1.
<mgrwt>
<rscale>  0 0.90533344E+01</rscale>
<asrwt>0</asrwt>
<pdfrwt beam="1">0</pdfrwt>
<pdfrwt beam="2">0</pdfrwt>
<totfact> 0.11088713E+11</totfact>
</mgrwt>
</event>
<event>
 4    1  0.1750553E+006  0.2472729E+01  0.7546771E-02  0.2720676E+00
         22   -1    0    0    0    0  0.00000000000E+00  0.00000000000E+00  0.53763675046E+00  0.53763675046E+00  0.00000000000E+00 0. -1.
         22   -1    0    0    0    0 -0.00000000000E+00 -0.00000000000E+00 -0.15805851355E+02  0.15805851355E+02  0.00000000000E+00 0. -1.
          4    1    1    2  501    0  0.17982603738E+01  0.11259439379E+01 -0.33063659193E+01  0.41287341541E+01  0.12700000000E+01 0. -1.
         -4    1    1    2    0  501 -0.17982603738E+01 -0.11259439379E+01 -0.11961848686E+02  0.12214753952E+02  0.12700000000E+01 0. -1.
<mgrwt>
<rscale>  0 0.24727293E+01</rscale>
<asrwt>0</asrwt>
<pdfrwt beam="1">0</pdfrwt>
<pdfrwt beam="2">0</pdfrwt>
<totfact> 0.18356267E+12</totfact>
</mgrwt>
</event>
<event>
 4    1  0.1750553E+006  0.2616854E+01  0.7546771E-02  0.2659152E+00
         22   -1    0    0    0    0  0.00000000000E+00  0.00000000000E+00  0.50064142564E+02  0.50064142564E+02  0.00000000000E+00 0.  1.
         22   -1    0    0    0    0 -0.00000000000E+00 -0.00000000000E+00 -0.13974428885E+00  0.13974428885E+00  0.00000000000E+00 0. -1.
          4    1    1    2  501    0 -0.64982473669E+00 -0.21937986962E+01  0.28616285443E+02  0.28735687175E+02  0.12700000000E+01 0.  1.
         -4    1    1    2    0  501  0.64982473669E+00  0.21937986962E+01  0.21308112833E+02  0.21468199677E+02  0.12700000000E+01 0. -1.
<mgrwt>
<rscale>  0 0.26168540E+01</rscale>
<asrwt>0</asrwt>
<pdfrwt beam="1">0</pdfrwt>
<pdfrwt beam="2">0</pdfrwt>
<totfact> 0.19162688E+12</totfact>
</mgrwt>
</event>
<event>
 4    1  0.1750553E+006  0.2303106E+01  0.7546771E-02  0.2802259E+00
         22   -1    0    0    0    0  0.00000000000E+00  0.00000000000E+00  0.10162345222E+02  0.10162345222E+02  0.00000000000E+00 0.  1.
         22   -1    0    0    0    0 -0.00000000000E+00 -0.00000000000E+00 -0.58622030347E+00  0.58622030347E+00  0.00000000000E+00 0. -1.
          4    1    1    2  501    0  0.17077780418E+00  0.19136955424E+01  0.30086548459E+01  0.37889707929E+01  0.12700000000E+01 0. -1.
         -4    1    1    2    0  501 -0.17077780418E+00 -0.19136955424E+01  0.65674700725E+01  0.69595947325E+01  0.12700000000E+01 0.  1.
<mgrwt>
<rscale>  0 0.23031057E+01</rscale>
<asrwt>0</asrwt>
<pdfrwt beam="1">0</pdfrwt>
<pdfrwt beam="2">0</pdfrwt>
<totfact> 0.28557163E+12</totfact>
</mgrwt>
</event>
<event>
 4    1  0.1750553E+006  0.2463001E+01  0.7546771E-02  0.2725070E+00
         22   -1    0    0    0    0  0.00000000000E+00  0.00000000000E+00  0.36890124072E+02  0.36890124072E+02  0.00000000000E+00 0. -1.
         22   -1    0    0    0    0 -0.00000000000E+00 -0.00000000000E+00 -0.29981803301E+00  0.29981803301E+00  0.00000000000E+00 0.  1.
          4    1    1    2  501    0  0.21059444869E+00  0.20997918491E+01  0.30790076696E+02  0.30888431472E+02  0.12700000000E+01 0. -1.
         -4    1    1    2    0  501 -0.21059444869E+00 -0.20997918491E+01  0.58002293432E+01  0.63015106336E+01  0.12700000000E+01 0.  1.
<mgrwt>
<rscale>  0 0.24630014E+01</rscale>
<asrwt>0</asrwt>
<pdfrwt beam="1">0</pdfrwt>
<pdfrwt beam="2">0</pdfrwt>
<totfact> 0.12175564E+12</totfact>
</mgrwt>
</event>
<event>
 4    1  0.1750553E+006  0.2199367E+01  0.7546771E-02  0.2858007E+00
         22   -1    0    0    0    0  0.00000000000E+00  0.00000000000E+00  0.92884139185E+01  0.92884139185E+01  0.00000000000E+00 0.  1.
         22   -1    0    0    0    0 -0.00000000000E+00 -0.00000000000E+00 -0.52192178718E+00  0.52192178718E+00  0.00000000000E+00 0.  1.
          4    1    1    2  501    0  0.16812627129E-01 -0.17955592804E+01  0.46127203117E+01  0.51102254811E+01  0.12700000000E+01 0.  1.
         -4    1    1    2    0  501 -0.16812627129E-01  0.17955592804E+01  0.41537718197E+01  0.47001102246E+01  0.12700000000E+01 0.  1.
<mgrwt>
<rscale>  0 0.21993671E+01</rscale>
<asrwt>0</asrwt>
<pdfrwt beam="1">0</pdfrwt>
<pdfrwt beam="2">0</pdfrwt>
<totfact> 0.36308557E+12</totfact>
</mgrwt>
</event>
<event>
 4    1  0.1750553E+006  0.3229944E+01  0.7546771E-02  0.2454157E+00
         22   -1    0    0    0    0  0.00000000000E+00  0.00000000000E+00  0.31817423350E+02  0.31817423350E+02  0.00000000000E+00 0.  1.
         22   -1    0    0    0    0 -0.00000000000E+00 -0.00000000000E+00 -0.13955742092E+01  0.13955742092E+01  0.00000000000E+00 0. -1.
          4    1    1    2  501    0 -0.70091079286E-01  0.29689605602E+01  0.29736170763E+02  0.29911074725E+02  0.12700000000E+01 0.  1.
         -4    1    1    2    0  501  0.70091079286E-01 -0.29689605602E+01  0.68567837850E+00  0.33019228347E+01  0.12700000000E+01 0. -1.
<mgrwt>
<rscale>  0 0.32299442E+01</rscale>
<asrwt>0</asrwt>
<pdfrwt beam="1">0</pdfrwt>
<pdfrwt beam="2">0</pdfrwt>
<totfact> 0.25736078E+11</totfact>
</mgrwt>
</event>
<event>
 4    1  0.1750553E+006  0.2122317E+01  0.7546771E-02  0.2902786E+00
         22   -1    0    0    0    0  0.00000000000E+00  0.00000000000E+00  0.61476505612E+00  0.61476505612E+00  0.00000000000E+00 0.  1.
         22   -1    0    0    0    0 -0.00000000000E+00 -0.00000000000E+00 -0.73397156288E+01  0.73397156288E+01  0.00000000000E+00 0. -1.
          4    1    1    2  501    0  0.16971150557E+01 -0.10550764396E+00 -0.31953284578E+01  0.38359295260E+01  0.12700000000E+01 0. -1.
         -4    1    1    2    0  501 -0.16971150557E+01  0.10550764396E+00 -0.35296221149E+01  0.41185511589E+01  0.12700000000E+01 0.  1.
<mgrwt>
<rscale>  0 0.21223175E+01</rscale>
<asrwt>0</asrwt>
<pdfrwt beam="1">0</pdfrwt>
<pdfrwt beam="2">0</pdfrwt>
<totfact> 0.40045461E+12</totfact>
</mgrwt>
</event>
<event>
 4    1  0.1750553E+006  0.2319828E+01  0.7546771E-02  0.2793717E+00
         22   -1    0    0    0    0  0.00000000000E+00  0.00000000000E+00  0.20093351956E+02  0.20093351956E+02  0.00000000000E+00 0.  1.
         22   -1    0    0    0    0 -0.00000000000E+00 -0.00000000000E+00 -0.28346049983E+00  0.28346049983E+00  0.00000000000E+00 0.  1.
          4    1    1    2  501    0 -0.57221784279E+00 -0.18550659213E+01  0.12297413798E+02  0.12514311366E+02  0.12700000000E+01 0.  1.
         -4    1    1    2    0  501  0.57221784279E+00  0.18550659213E+01  0.75124776582E+01  0.78625010904E+01  0.12700000000E+01 0.  1.
<mgrwt>
<rscale>  0 0.23198282E+01</rscale>
<asrwt>0</asrwt>
<pdfrwt beam="1">0</pdfrwt>
<pdfrwt beam="2">0</pdfrwt>
<totfact> 0.28011315E+12</totfact>
</mgrwt>
</event>
<event>
 4    1  0.1750553E+006  0.3337499E+01  0.7546771E-02  0.2425206E+00
         22   -1    0    0    0    0  0.00000000000E+00  0.00000000000E+00  0.91488797252E+01  0.91488797252E+01  0.00000000000E+00 0. -1.
         22   -1    0    0    0    0 -0.00000000000E+00 -0.00000000000E+00 -0.20885097089E+01  0.20885097089E+01  0.00000000000E+00 0.  1.
          4    1    1    2  501    0 -0.29302087568E+01 -0.96947385431E+00  0.71586657251E+01  0.78984427501E+01  0.12700000000E+01 0. -1.
         -4    1    1    2    0  501  0.29302087568E+01  0.96947385431E+00 -0.98295708869E-01  0.33389466840E+01  0.12700000000E+01 0.  1.
<mgrwt>
<rscale>  0 0.33374995E+01</rscale>
<asrwt>0</asrwt>
<pdfrwt beam="1">0</pdfrwt>
<pdfrwt beam="2">0</pdfrwt>
<totfact> 0.75760392E+11</totfact>
</mgrwt>
</event>
<event>
 4    1  0.1750553E+006  0.2758967E+01  0.7546771E-02  0.2604313E+00
         22   -1    0    0    0    0  0.00000000000E+00  0.00000000000E+00  0.36919461531E+00  0.36919461531E+00  0.00000000000E+00 0.  1.
         22   -1    0    0    0    0 -0.00000000000E+00 -0.00000000000E+00 -0.31954298388E+02  0.31954298388E+02  0.00000000000E+00 0. -1.
          4    1    1    2  501    0  0.78227237401E+00  0.23210016115E+01 -0.61660748989E+01  0.67551741804E+01  0.12700000000E+01 0.  1.
         -4    1    1    2    0  501 -0.78227237401E+00 -0.23210016115E+01 -0.25419028873E+02  0.25568318823E+02  0.12700000000E+01 0. -1.
<mgrwt>
<rscale>  0 0.27589669E+01</rscale>
<asrwt>0</asrwt>
<pdfrwt beam="1">0</pdfrwt>
<pdfrwt beam="2">0</pdfrwt>
<totfact> 0.11591991E+12</totfact>
</mgrwt>
</event>
<event>
 4    1  0.1750553E+006  0.3091777E+01  0.7546771E-02  0.2493950E+00
         22   -1    0    0    0    0  0.00000000000E+00  0.00000000000E+00  0.41281891469E+01  0.41281891469E+01  0.00000000000E+00 0. -1.
         22   -1    0    0    0    0 -0.00000000000E+00 -0.00000000000E+00 -0.25897398054E+01  0.25897398054E+01  0.00000000000E+00 0. -1.
          4    1    1    2  501    0 -0.23190929601E+01 -0.16024958100E+01  0.18621541443E+01  0.36092524206E+01  0.12700000000E+01 0. -1.
         -4    1    1    2    0  501  0.23190929601E+01  0.16024958100E+01 -0.32370480279E+00  0.31086765316E+01  0.12700000000E+01 0. -1.
<mgrwt>
<rscale>  0 0.30917770E+01</rscale>
<asrwt>0</asrwt>
<pdfrwt beam="1">0</pdfrwt>
<pdfrwt beam="2">0</pdfrwt>
<totfact> 0.15233158E+12</totfact>
</mgrwt>
</event>
<event>
 4    1  0.1750553E+006  0.2366108E+01  0.7546771E-02  0.2770673E+00
         22   -1    0    0    0    0  0.00000000000E+00  0.00000000000E+00  0.12659152086E+02  0.12659152086E+02  0.00000000000E+00 0.  1.
         22   -1    0    0    0    0 -0.00000000000E+00 -0.00000000000E+00 -0.71961974757E+00  0.71961974757E+00  0.00000000000E+00 0. -1.
          4    1    1    2  501    0 -0.19323258951E+01  0.50167999846E+00  0.10122814365E+02  0.10395664329E+02  0.12700000000E+01 0.  1.
         -4    1    1    2    0  501  0.19323258951E+01 -0.50167999846E+00  0.18167179737E+01  0.29831075042E+01  0.12700000000E+01 0. -1.
<mgrwt>
<rscale>  0 0.23661078E+01</rscale>
<asrwt>0</asrwt>
<pdfrwt beam="1">0</pdfrwt>
<pdfrwt beam="2">0</pdfrwt>
<totfact> 0.17325249E+12</totfact>
</mgrwt>
</event>
<event>
 4    1  0.1750553E+006  0.2742724E+01  0.7546771E-02  0.2610317E+00
         22   -1    0    0    0    0  0.00000000000E+00  0.00000000000E+00  0.23483867113E+01  0.23483867113E+01  0.00000000000E+00 0. -1.
         22   -1    0    0    0    0 -0.00000000000E+00 -0.00000000000E+00 -0.35248049233E+01  0.35248049233E+01  0.00000000000E+00 0. -1.
          4    1    1    2  501    0  0.10785621312E+01 -0.21786092200E+01 -0.14751314921E+01  0.31142490785E+01  0.12700000000E+01 0. -1.
         -4    1    1    2    0  501 -0.10785621312E+01  0.21786092200E+01  0.29871328004E+00  0.27589425561E+01  0.12700000000E+01 0. -1.
<mgrwt>
<rscale>  0 0.27427239E+01</rscale>
<asrwt>0</asrwt>
<pdfrwt beam="1">0</pdfrwt>
<pdfrwt beam="2">0</pdfrwt>
<totfact> 0.20551514E+12</totfact>
</mgrwt>
</event>
<event>
 4    1  0.1750553E+006  0.3344521E+01  0.7546771E-02  0.2423374E+00
         22   -1    0    0    0    0  0.00000000000E+00  0.00000000000E+00  0.46897223076E+00  0.46897223076E+00  0.00000000000E+00 0.  1.
         22   -1    0    0    0    0 -0.00000000000E+00 -0.00000000000E+00 -0.24858498656E+02  0.24858498656E+02  0.00000000000E+00 0. -1.
          4    1    1    2  501    0 -0.22190574556E+01 -0.21560852862E+01 -0.96462922388E+01  0.10209641214E+02  0.12700000000E+01 0.  1.
         -4    1    1    2    0  501  0.22190574556E+01  0.21560852862E+01 -0.14743234186E+02  0.15117829673E+02  0.12700000000E+01 0. -1.
<mgrwt>
<rscale>  0 0.33445209E+01</rscale>
<asrwt>0</asrwt>
<pdfrwt beam="1">0</pdfrwt>
<pdfrwt beam="2">0</pdfrwt>
<totfact> 0.12179877E+12</totfact>
</mgrwt>
</event>
<event>
 4    1  0.1750553E+006  0.2007984E+01  0.7546771E-02  0.2975358E+00
         22   -1    0    0    0    0  0.00000000000E+00  0.00000000000E+00  0.87769370301E+02  0.87769370301E+02  0.00000000000E+00 0.  1.
         22   -1    0    0    0    0 -0.00000000000E+00 -0.00000000000E+00 -0.76387923024E+00  0.76387923024E+00  0.00000000000E+00 0.  1.
          4    1    1    2  501    0 -0.13245083912E+01  0.81533942809E+00  0.86417667605E+02  0.86440993025E+02  0.12700000000E+01 0.  1.
         -4    1    1    2    0  501  0.13245083912E+01 -0.81533942809E+00  0.58782346590E+00  0.20922565064E+01  0.12700000000E+01 0.  1.
<mgrwt>
<rscale>  0 0.20079843E+01</rscale>
<asrwt>0</asrwt>
<pdfrwt beam="1">0</pdfrwt>
<pdfrwt beam="2">0</pdfrwt>
<totfact> 0.13321781E+11</totfact>
</mgrwt>
</event>
<event>
 4    1  0.1750553E+006  0.2493614E+01  0.7546771E-02  0.2711352E+00
         22   -1    0    0    0    0  0.00000000000E+00  0.00000000000E+00  0.31161249270E+00  0.31161249270E+00  0.00000000000E+00 0. -1.
         22   -1    0    0    0    0 -0.00000000000E+00 -0.00000000000E+00 -0.20695414299E+02  0.20695414299E+02  0.00000000000E+00 0.  1.
          4    1    1    2  501    0  0.20760828183E+01  0.54322100222E+00 -0.82046792855E+01  0.85752475827E+01  0.12700000000E+01 0. -1.
         -4    1    1    2    0  501 -0.20760828183E+01 -0.54322100222E+00 -0.12179122521E+02  0.12431779209E+02  0.12700000000E+01 0.  1.
<mgrwt>
<rscale>  0 0.24936136E+01</rscale>
<asrwt>0</asrwt>
<pdfrwt beam="1">0</pdfrwt>
<pdfrwt beam="2">0</pdfrwt>
<totfact> 0.24279301E+12</totfact>
</mgrwt>
</event>
<event>
 4    1  0.1750553E+006  0.2581194E+01  0.7546771E-02  0.2673782E+00
         22   -1    0    0    0    0  0.00000000000E+00  0.00000000000E+00  0.19975325433E+01  0.19975325433E+01  0.00000000000E+00 0.  1.
         22   -1    0    0    0    0 -0.00000000000E+00 -0.00000000000E+00 -0.25800314206E+02  0.25800314206E+02  0.00000000000E+00 0.  1.
          4    1    1    2  501    0 -0.10642060798E+01  0.19791729014E+01  0.10680452809E+01  0.27934352822E+01  0.12700000000E+01 0.  1.
         -4    1    1    2    0  501  0.10642060798E+01 -0.19791729014E+01 -0.24870826943E+02  0.25004411467E+02  0.12700000000E+01 0.  1.
<mgrwt>
<rscale>  0 0.25811935E+01</rscale>
<asrwt>0</asrwt>
<pdfrwt beam="1">0</pdfrwt>
<pdfrwt beam="2">0</pdfrwt>
<totfact> 0.22215670E+11</totfact>
</mgrwt>
</event>
<event>
 4    1  0.1750553E+006  0.2149063E+01  0.7546771E-02  0.2886892E+00
         22   -1    0    0    0    0  0.00000000000E+00  0.00000000000E+00  0.27121370376E+00  0.27121370376E+00  0.00000000000E+00 0. -1.
         22   -1    0    0    0    0 -0.00000000000E+00 -0.00000000000E+00 -0.17915059363E+02  0.17915059363E+02  0.00000000000E+00 0.  1.
          4    1    1    2  501    0  0.16348097108E+01  0.57703379673E+00 -0.67995523160E+01  0.71310856461E+01  0.12700000000E+01 0. -1.
         -4    1    1    2    0  501 -0.16348097108E+01 -0.57703379673E+00 -0.10844293343E+02  0.11055187421E+02  0.12700000000E+01 0.  1.
<mgrwt>
<rscale>  0 0.21490628E+01</rscale>
<asrwt>0</asrwt>
<pdfrwt beam="1">0</pdfrwt>
<pdfrwt beam="2">0</pdfrwt>
<totfact> 0.33945972E+12</totfact>
</mgrwt>
</event>
<event>
 4    1  0.1750553E+006  0.6691093E+01  0.7546771E-02  0.1962743E+00
         22   -1    0    0    0    0  0.00000000000E+00  0.00000000000E+00  0.10185560468E+02  0.10185560468E+02  0.00000000000E+00 0. -1.
         22   -1    0    0    0    0 -0.00000000000E+00 -0.00000000000E+00 -0.11422481163E+02  0.11422481163E+02  0.00000000000E+00 0.  1.
          4    1    1    2  501    0 -0.64866857247E+01 -0.10395862721E+01  0.78555556088E+01  0.10318938183E+02  0.12700000000E+01 0. -1.
         -4    1    1    2    0  501  0.64866857247E+01  0.10395862721E+01 -0.90924763045E+01  0.11289103448E+02  0.12700000000E+01 0.  1.
<mgrwt>
<rscale>  0 0.66910934E+01</rscale>
<asrwt>0</asrwt>
<pdfrwt beam="1">0</pdfrwt>
<pdfrwt beam="2">0</pdfrwt>
<totfact> 0.88887801E+10</totfact>
</mgrwt>
</event>
<event>
 4    1  0.1750553E+006  0.2520234E+01  0.7546771E-02  0.2699676E+00
         22   -1    0    0    0    0  0.00000000000E+00  0.00000000000E+00  0.27865615680E+01  0.27865615680E+01  0.00000000000E+00 0. -1.
         22   -1    0    0    0    0 -0.00000000000E+00 -0.00000000000E+00 -0.45441326618E+01  0.45441326618E+01  0.00000000000E+00 0.  1.
          4    1    1    2  501    0  0.21627355812E+01 -0.24749706445E+00  0.17088422738E+01  0.30449502308E+01  0.12700000000E+01 0. -1.
         -4    1    1    2    0  501 -0.21627355812E+01  0.24749706445E+00 -0.34664133675E+01  0.42857439991E+01  0.12700000000E+01 0.  1.
<mgrwt>
<rscale>  0 0.25202341E+01</rscale>
<asrwt>0</asrwt>
<pdfrwt beam="1">0</pdfrwt>
<pdfrwt beam="2">0</pdfrwt>
<totfact> 0.12489637E+12</totfact>
</mgrwt>
</event>
<event>
 4    1  0.1750553E+006  0.2099577E+01  0.7546771E-02  0.2916608E+00
         22   -1    0    0    0    0  0.00000000000E+00  0.00000000000E+00  0.15635707858E+00  0.15635707858E+00  0.00000000000E+00 0.  1.
         22   -1    0    0    0    0 -0.00000000000E+00 -0.00000000000E+00 -0.28284376019E+02  0.28284376019E+02  0.00000000000E+00 0. -1.
          4    1    1    2  501    0 -0.31275553963E+00 -0.16424084524E+01 -0.13257059334E+02  0.13422289064E+02  0.12700000000E+01 0.  1.
         -4    1    1    2    0  501  0.31275553963E+00  0.16424084524E+01 -0.14870959607E+02  0.15018444033E+02  0.12700000000E+01 0.  1.
<mgrwt>
<rscale>  0 0.20995765E+01</rscale>
<asrwt>0</asrwt>
<pdfrwt beam="1">0</pdfrwt>
<pdfrwt beam="2">0</pdfrwt>
<totfact> 0.35389813E+12</totfact>
</mgrwt>
</event>
<event>
 4    1  0.1750553E+006  0.2051041E+01  0.7546771E-02  0.2947103E+00
         22   -1    0    0    0    0  0.00000000000E+00  0.00000000000E+00  0.60992286160E+00  0.60992286160E+00  0.00000000000E+00 0.  1.
         22   -1    0    0    0    0 -0.00000000000E+00 -0.00000000000E+00 -0.70097933975E+01  0.70097933975E+01  0.00000000000E+00 0. -1.
          4    1    1    2  501    0  0.15816591247E+01  0.30368542550E+00 -0.36827489502E+01  0.42153778305E+01  0.12700000000E+01 0. -1.
         -4    1    1    2    0  501 -0.15816591247E+01 -0.30368542550E+00 -0.27171215857E+01  0.34043384285E+01  0.12700000000E+01 0.  1.
<mgrwt>
<rscale>  0 0.20510413E+01</rscale>
<asrwt>0</asrwt>
<pdfrwt beam="1">0</pdfrwt>
<pdfrwt beam="2">0</pdfrwt>
<totfact> 0.42691861E+12</totfact>
</mgrwt>
</event>
<event>
 4    1  0.1750553E+006  0.2568214E+01  0.7546771E-02  0.2679200E+00
         22   -1    0    0    0    0  0.00000000000E+00  0.00000000000E+00  0.64036501277E+01  0.64036501277E+01  0.00000000000E+00 0. -1.
         22   -1    0    0    0    0 -0.00000000000E+00 -0.00000000000E+00 -0.13324750476E+01  0.13324750476E+01  0.00000000000E+00 0.  1.
          4    1    1    2  501    0  0.15720244573E+01 -0.15847901967E+01  0.43785355054E+01  0.50761495284E+01  0.12700000000E+01 0. -1.
         -4    1    1    2    0  501 -0.15720244573E+01  0.15847901967E+01  0.69263957468E+00  0.26599756469E+01  0.12700000000E+01 0.  1.
<mgrwt>
<rscale>  0 0.25682136E+01</rscale>
<asrwt>0</asrwt>
<pdfrwt beam="1">0</pdfrwt>
<pdfrwt beam="2">0</pdfrwt>
<totfact> 0.19515775E+12</totfact>
</mgrwt>
</event>
<event>
 4    1  0.1750553E+006  0.2167043E+01  0.7546771E-02  0.2876420E+00
         22   -1    0    0    0    0  0.00000000000E+00  0.00000000000E+00  0.80324283549E+00  0.80324283549E+00  0.00000000000E+00 0. -1.
         22   -1    0    0    0    0 -0.00000000000E+00 -0.00000000000E+00 -0.62958469720E+01  0.62958469720E+01  0.00000000000E+00 0.  1.
          4    1    1    2  501    0  0.92645038929E+00 -0.14915982856E+01 -0.36946915164E+01  0.42833189434E+01  0.12700000000E+01 0.  1.
         -4    1    1    2    0  501 -0.92645038929E+00  0.14915982856E+01 -0.17979126201E+01  0.28157708641E+01  0.12700000000E+01 0. -1.
<mgrwt>
<rscale>  0 0.21670431E+01</rscale>
<asrwt>0</asrwt>
<pdfrwt beam="1">0</pdfrwt>
<pdfrwt beam="2">0</pdfrwt>
<totfact> 0.35508948E+12</totfact>
</mgrwt>
</event>
<event>
 4    1  0.1750553E+006  0.2745138E+01  0.7546771E-02  0.2609421E+00
         22   -1    0    0    0    0  0.00000000000E+00  0.00000000000E+00  0.35731687588E+01  0.35731687588E+01  0.00000000000E+00 0. -1.
         22   -1    0    0    0    0 -0.00000000000E+00 -0.00000000000E+00 -0.21625420271E+01  0.21625420271E+01  0.00000000000E+00 0.  1.
          4    1    1    2  501    0 -0.23954916638E+01 -0.42953580006E+00  0.11566059910E+01  0.29788452013E+01  0.12700000000E+01 0.  1.
         -4    1    1    2    0  501  0.23954916638E+01  0.42953580006E+00  0.25402074071E+00  0.27568655846E+01  0.12700000000E+01 0. -1.
<mgrwt>
<rscale>  0 0.27451378E+01</rscale>
<asrwt>0</asrwt>
<pdfrwt beam="1">0</pdfrwt>
<pdfrwt beam="2">0</pdfrwt>
<totfact> 0.22256238E+12</totfact>
</mgrwt>
</event>
<event>
 4    1  0.1750553E+006  0.2879265E+01  0.7546771E-02  0.2561767E+00
         22   -1    0    0    0    0  0.00000000000E+00  0.00000000000E+00  0.27676574990E+01  0.27676574990E+01  0.00000000000E+00 0.  1.
         22   -1    0    0    0    0 -0.00000000000E+00 -0.00000000000E+00 -0.47489124084E+01  0.47489124084E+01  0.00000000000E+00 0.  1.
          4    1    1    2  501    0 -0.47072195722E+00  0.25408042315E+01  0.12931324634E+01  0.31563201472E+01  0.12700000000E+01 0.  1.
         -4    1    1    2    0  501  0.47072195722E+00 -0.25408042315E+01 -0.32743873728E+01  0.43602497602E+01  0.12700000000E+01 0.  1.
<mgrwt>
<rscale>  0 0.28792647E+01</rscale>
<asrwt>0</asrwt>
<pdfrwt beam="1">0</pdfrwt>
<pdfrwt beam="2">0</pdfrwt>
<totfact> 0.11950494E+12</totfact>
</mgrwt>
</event>
<event>
 4    1  0.1750553E+006  0.2252004E+01  0.7546771E-02  0.2829109E+00
         22   -1    0    0    0    0  0.00000000000E+00  0.00000000000E+00  0.21541184419E+01  0.21541184419E+01  0.00000000000E+00 0. -1.
         22   -1    0    0    0    0 -0.00000000000E+00 -0.00000000000E+00 -0.23543497591E+01  0.23543497591E+01  0.00000000000E+00 0.  1.
          4    1    1    2  501    0  0.18573799491E+01  0.93596788161E-01 -0.94856813656E-01  0.22540005433E+01  0.12700000000E+01 0. -1.
         -4    1    1    2    0  501 -0.18573799491E+01 -0.93596788161E-01 -0.10537450352E+00  0.22544676578E+01  0.12700000000E+01 0.  1.
<mgrwt>
<rscale>  0 0.22520037E+01</rscale>
<asrwt>0</asrwt>
<pdfrwt beam="1">0</pdfrwt>
<pdfrwt beam="2">0</pdfrwt>
<totfact> 0.36382699E+12</totfact>
</mgrwt>
</event>
<event>
 4    1  0.1750553E+006  0.2180044E+01  0.7546771E-02  0.2868951E+00
         22   -1    0    0    0    0  0.00000000000E+00  0.00000000000E+00  0.49200619137E+01  0.49200619137E+01  0.00000000000E+00 0. -1.
         22   -1    0    0    0    0 -0.00000000000E+00 -0.00000000000E+00 -0.14035688482E+01  0.14035688482E+01  0.00000000000E+00 0.  1.
          4    1    1    2  501    0  0.16510341907E+01  0.64325742381E+00  0.35237215842E+01  0.41435742801E+01  0.12700000000E+01 0. -1.
         -4    1    1    2    0  501 -0.16510341907E+01 -0.64325742381E+00 -0.72285187436E-02  0.21800564818E+01  0.12700000000E+01 0. -1.
<mgrwt>
<rscale>  0 0.21800445E+01</rscale>
<asrwt>0</asrwt>
<pdfrwt beam="1">0</pdfrwt>
<pdfrwt beam="2">0</pdfrwt>
<totfact> 0.25142953E+12</totfact>
</mgrwt>
</event>
<event>
 4    1  0.1750553E+006  0.2264504E+01  0.7546771E-02  0.2822435E+00
         22   -1    0    0    0    0  0.00000000000E+00  0.00000000000E+00  0.71681764862E+01  0.71681764862E+01  0.00000000000E+00 0. -1.
         22   -1    0    0    0    0 -0.00000000000E+00 -0.00000000000E+00 -0.88722457818E+00  0.88722457818E+00  0.00000000000E+00 0.  1.
          4    1    1    2  501    0  0.14925989797E+01  0.11345599765E+01  0.13678916301E+01  0.26455822736E+01  0.12700000000E+01 0.  1.
         -4    1    1    2    0  501 -0.14925989797E+01 -0.11345599765E+01  0.49130602779E+01  0.54098187908E+01  0.12700000000E+01 0. -1.
<mgrwt>
<rscale>  0 0.22645039E+01</rscale>
<asrwt>0</asrwt>
<pdfrwt beam="1">0</pdfrwt>
<pdfrwt beam="2">0</pdfrwt>
<totfact> 0.27155123E+12</totfact>
</mgrwt>
</event>
<event>
 4    1  0.1750553E+006  0.3070939E+01  0.7546771E-02  0.2500227E+00
         22   -1    0    0    0    0  0.00000000000E+00  0.00000000000E+00  0.21798150865E+01  0.21798150865E+01  0.00000000000E+00 0.  1.
         22   -1    0    0    0    0 -0.00000000000E+00 -0.00000000000E+00 -0.76387789326E+01  0.76387789326E+01  0.00000000000E+00 0. -1.
          4    1    1    2  501    0 -0.21158564971E+01 -0.18278176819E+01  0.50332616308E+00  0.31119131449E+01  0.12700000000E+01 0. -1.
         -4    1    1    2    0  501  0.21158564971E+01  0.18278176819E+01 -0.59622900092E+01  0.67066808742E+01  0.12700000000E+01 0. -1.
<mgrwt>
<rscale>  0 0.30709390E+01</rscale>
<asrwt>0</asrwt>
<pdfrwt beam="1">0</pdfrwt>
<pdfrwt beam="2">0</pdfrwt>
<totfact> 0.89571169E+11</totfact>
</mgrwt>
</event>
<event>
 4    1  0.1750553E+006  0.3238379E+01  0.7546771E-02  0.2451825E+00
         22   -1    0    0    0    0  0.00000000000E+00  0.00000000000E+00  0.56594160324E+01  0.56594160324E+01  0.00000000000E+00 0. -1.
         22   -1    0    0    0    0 -0.00000000000E+00 -0.00000000000E+00 -0.47829331169E+01  0.47829331169E+01  0.00000000000E+00 0.  1.
          4    1    1    2  501    0  0.23458981917E+01  0.18360167483E+01  0.45247021141E+01  0.55641733481E+01  0.12700000000E+01 0. -1.
         -4    1    1    2    0  501 -0.23458981917E+01 -0.18360167483E+01 -0.36482191987E+01  0.48781758012E+01  0.12700000000E+01 0.  1.
<mgrwt>
<rscale>  0 0.32383786E+01</rscale>
<asrwt>0</asrwt>
<pdfrwt beam="1">0</pdfrwt>
<pdfrwt beam="2">0</pdfrwt>
<totfact> 0.51072533E+11</totfact>
</mgrwt>
</event>
<event>
 4    1  0.1750553E+006  0.2151700E+01  0.7546771E-02  0.2885345E+00
         22   -1    0    0    0    0  0.00000000000E+00  0.00000000000E+00  0.51133480597E+01  0.51133480597E+01  0.00000000000E+00 0.  1.
         22   -1    0    0    0    0 -0.00000000000E+00 -0.00000000000E+00 -0.17324108067E+01  0.17324108067E+01  0.00000000000E+00 0.  1.
          4    1    1    2  501    0 -0.17326505269E+01  0.12180787923E+00  0.40553644383E+01  0.45908382389E+01  0.12700000000E+01 0.  1.
         -4    1    1    2    0  501  0.17326505269E+01 -0.12180787923E+00 -0.67442718535E+00  0.22549206275E+01  0.12700000000E+01 0.  1.
<mgrwt>
<rscale>  0 0.21517005E+01</rscale>
<asrwt>0</asrwt>
<pdfrwt beam="1">0</pdfrwt>
<pdfrwt beam="2">0</pdfrwt>
<totfact> 0.18850717E+12</totfact>
</mgrwt>
</event>
<event>
 4    1  0.1750553E+006  0.2597035E+01  0.7546771E-02  0.2667237E+00
         22   -1    0    0    0    0  0.00000000000E+00  0.00000000000E+00  0.10157169989E+01  0.10157169989E+01  0.00000000000E+00 0. -1.
         22   -1    0    0    0    0 -0.00000000000E+00 -0.00000000000E+00 -0.93974196402E+01  0.93974196402E+01  0.00000000000E+00 0.  1.
          4    1    1    2  501    0  0.89249189954E+00 -0.20821021038E+01 -0.13706451820E+01  0.29365386387E+01  0.12700000000E+01 0. -1.
         -4    1    1    2    0  501 -0.89249189954E+00  0.20821021038E+01 -0.70110574593E+01  0.74765980004E+01  0.12700000000E+01 0.  1.
<mgrwt>
<rscale>  0 0.25970350E+01</rscale>
<asrwt>0</asrwt>
<pdfrwt beam="1">0</pdfrwt>
<pdfrwt beam="2">0</pdfrwt>
<totfact> 0.16804831E+12</totfact>
</mgrwt>
</event>
<event>
 4    1  0.1750553E+006  0.3832619E+01  0.7546771E-02  0.2310479E+00
         22   -1    0    0    0    0  0.00000000000E+00  0.00000000000E+00  0.92639682328E+01  0.92639682328E+01  0.00000000000E+00 0. -1.
         22   -1    0    0    0    0 -0.00000000000E+00 -0.00000000000E+00 -0.63741638488E+01  0.63741638488E+01  0.00000000000E+00 0.  1.
          4    1    1    2  501    0 -0.27208998642E+01 -0.23817584244E+01  0.82220320469E+01  0.90714265826E+01  0.12700000000E+01 0. -1.
         -4    1    1    2    0  501  0.27208998642E+01  0.23817584244E+01 -0.53322276628E+01  0.65667054991E+01  0.12700000000E+01 0.  1.
<mgrwt>
<rscale>  0 0.38326191E+01</rscale>
<asrwt>0</asrwt>
<pdfrwt beam="1">0</pdfrwt>
<pdfrwt beam="2">0</pdfrwt>
<totfact> 0.20126079E+11</totfact>
</mgrwt>
</event>
<event>
 4    1  0.1750553E+006  0.2074520E+01  0.7546771E-02  0.2932177E+00
         22   -1    0    0    0    0  0.00000000000E+00  0.00000000000E+00  0.10160181517E+01  0.10160181517E+01  0.00000000000E+00 0. -1.
         22   -1    0    0    0    0 -0.00000000000E+00 -0.00000000000E+00 -0.64738273213E+01  0.64738273213E+01  0.00000000000E+00 0. -1.
          4    1    1    2  501    0  0.88570843752E+00  0.13806721509E+01 -0.52701063271E+00  0.21404147335E+01  0.12700000000E+01 0. -1.
         -4    1    1    2    0  501 -0.88570843752E+00 -0.13806721509E+01 -0.49307985370E+01  0.53494307395E+01  0.12700000000E+01 0. -1.
<mgrwt>
<rscale>  0 0.20745204E+01</rscale>
<asrwt>0</asrwt>
<pdfrwt beam="1">0</pdfrwt>
<pdfrwt beam="2">0</pdfrwt>
<totfact> 0.26275426E+12</totfact>
</mgrwt>
</event>
<event>
 4    1  0.1750553E+006  0.2179473E+01  0.7546771E-02  0.2869278E+00
         22   -1    0    0    0    0  0.00000000000E+00  0.00000000000E+00  0.34403402257E+02  0.34403402257E+02  0.00000000000E+00 0.  1.
         22   -1    0    0    0    0 -0.00000000000E+00 -0.00000000000E+00 -0.22385331219E+00  0.22385331219E+00  0.00000000000E+00 0. -1.
          4    1    1    2  501    0 -0.39580364726E+00 -0.17264240151E+01  0.27807584443E+02  0.27892863835E+02  0.12700000000E+01 0.  1.
         -4    1    1    2    0  501  0.39580364726E+00  0.17264240151E+01  0.63719645024E+01  0.67343917340E+01  0.12700000000E+01 0. -1.
<mgrwt>
<rscale>  0 0.21794725E+01</rscale>
<asrwt>0</asrwt>
<pdfrwt beam="1">0</pdfrwt>
<pdfrwt beam="2">0</pdfrwt>
<totfact> 0.18472068E+12</totfact>
</mgrwt>
</event>
<event>
 4    1  0.1750553E+006  0.2068741E+01  0.7546771E-02  0.2935821E+00
         22   -1    0    0    0    0  0.00000000000E+00  0.00000000000E+00  0.20436698682E+02  0.20436698682E+02  0.00000000000E+00 0.  1.
         22   -1    0    0    0    0 -0.00000000000E+00 -0.00000000000E+00 -0.21157987728E+00  0.21157987728E+00  0.00000000000E+00 0. -1.
          4    1    1    2  501    0 -0.12449088360E+01  0.10568781187E+01  0.11157608867E+02  0.11347771807E+02  0.12700000000E+01 0.  1.
         -4    1    1    2    0  501  0.12449088360E+01 -0.10568781187E+01  0.90675099377E+01  0.93005067517E+01  0.12700000000E+01 0. -1.
<mgrwt>
<rscale>  0 0.20687410E+01</rscale>
<asrwt>0</asrwt>
<pdfrwt beam="1">0</pdfrwt>
<pdfrwt beam="2">0</pdfrwt>
<totfact> 0.38034329E+12</totfact>
</mgrwt>
</event>
<event>
 4    1  0.1750553E+006  0.2275673E+01  0.7546771E-02  0.2816530E+00
         22   -1    0    0    0    0  0.00000000000E+00  0.00000000000E+00  0.55056631921E+02  0.55056631921E+02  0.00000000000E+00 0. -1.
         22   -1    0    0    0    0 -0.00000000000E+00 -0.00000000000E+00 -0.19597573525E+00  0.19597573525E+00  0.00000000000E+00 0.  1.
          4    1    1    2  501    0  0.44827500579E+00  0.18343486857E+01  0.47352651167E+02  0.47407301739E+02  0.12700000000E+01 0. -1.
         -4    1    1    2    0  501 -0.44827500579E+00 -0.18343486857E+01  0.75080050186E+01  0.78453059176E+01  0.12700000000E+01 0.  1.
<mgrwt>
<rscale>  0 0.22756726E+01</rscale>
<asrwt>0</asrwt>
<pdfrwt beam="1">0</pdfrwt>
<pdfrwt beam="2">0</pdfrwt>
<totfact> 0.11595870E+12</totfact>
</mgrwt>
</event>
<event>
 4    1  0.1750553E+006  0.5033138E+01  0.7546771E-02  0.2119069E+00
         22   -1    0    0    0    0  0.00000000000E+00  0.00000000000E+00  0.34132397704E+01  0.34132397704E+01  0.00000000000E+00 0.  1.
         22   -1    0    0    0    0 -0.00000000000E+00 -0.00000000000E+00 -0.74375019158E+01  0.74375019158E+01  0.00000000000E+00 0. -1.
          4    1    1    2  501    0  0.38913011812E+01 -0.29287113592E+01 -0.22611993408E+01  0.55177438838E+01  0.12700000000E+01 0.  1.
         -4    1    1    2    0  501 -0.38913011812E+01  0.29287113592E+01 -0.17630628045E+01  0.53329978025E+01  0.12700000000E+01 0. -1.
<mgrwt>
<rscale>  0 0.50331377E+01</rscale>
<asrwt>0</asrwt>
<pdfrwt beam="1">0</pdfrwt>
<pdfrwt beam="2">0</pdfrwt>
<totfact> 0.54837293E+11</totfact>
</mgrwt>
</event>
<event>
 4    1  0.1750553E+006  0.2033683E+01  0.7546771E-02  0.2958353E+00
         22   -1    0    0    0    0  0.00000000000E+00  0.00000000000E+00  0.28668371351E+00  0.28668371351E+00  0.00000000000E+00 0.  1.
         22   -1    0    0    0    0 -0.00000000000E+00 -0.00000000000E+00 -0.18508345459E+02  0.18508345459E+02  0.00000000000E+00 0.  1.
          4    1    1    2  501    0 -0.11961482594E+01 -0.10450808694E+01 -0.46976331033E+01  0.51189472996E+01  0.12700000000E+01 0.  1.
         -4    1    1    2    0  501  0.11961482594E+01  0.10450808694E+01 -0.13524028642E+02  0.13676081872E+02  0.12700000000E+01 0.  1.
<mgrwt>
<rscale>  0 0.20336825E+01</rscale>
<asrwt>0</asrwt>
<pdfrwt beam="1">0</pdfrwt>
<pdfrwt beam="2">0</pdfrwt>
<totfact> 0.30635191E+12</totfact>
</mgrwt>
</event>
<event>
 4    1  0.1750553E+006  0.2254617E+01  0.7546771E-02  0.2827708E+00
         22   -1    0    0    0    0  0.00000000000E+00  0.00000000000E+00  0.25403833649E+01  0.25403833649E+01  0.00000000000E+00 0.  1.
         22   -1    0    0    0    0 -0.00000000000E+00 -0.00000000000E+00 -0.50831532572E+01  0.50831532572E+01  0.00000000000E+00 0. -1.
          4    1    1    2  501    0  0.17048419911E+00 -0.18550829514E+01 -0.42395446962E+01  0.48017743439E+01  0.12700000000E+01 0. -1.
         -4    1    1    2    0  501 -0.17048419911E+00  0.18550829514E+01  0.16967748040E+01  0.28217622781E+01  0.12700000000E+01 0.  1.
<mgrwt>
<rscale>  0 0.22546170E+01</rscale>
<asrwt>0</asrwt>
<pdfrwt beam="1">0</pdfrwt>
<pdfrwt beam="2">0</pdfrwt>
<totfact> 0.12182955E+12</totfact>
</mgrwt>
</event>
<event>
 4    1  0.1750553E+006  0.2364594E+01  0.7546771E-02  0.2771413E+00
         22   -1    0    0    0    0  0.00000000000E+00  0.00000000000E+00  0.10374780674E+02  0.10374780674E+02  0.00000000000E+00 0.  1.
         22   -1    0    0    0    0 -0.00000000000E+00 -0.00000000000E+00 -0.63568658260E+00  0.63568658260E+00  0.00000000000E+00 0. -1.
          4    1    1    2  501    0  0.58558170302E+00 -0.19066979528E+01  0.70173262460E+01  0.74050098351E+01  0.12700000000E+01 0.  1.
         -4    1    1    2    0  501 -0.58558170302E+00  0.19066979528E+01  0.27217678453E+01  0.36054574215E+01  0.12700000000E+01 0. -1.
<mgrwt>
<rscale>  0 0.23645936E+01</rscale>
<asrwt>0</asrwt>
<pdfrwt beam="1">0</pdfrwt>
<pdfrwt beam="2">0</pdfrwt>
<totfact> 0.25408468E+12</totfact>
</mgrwt>
</event>
<event>
 4    1  0.1750553E+006  0.2114303E+01  0.7546771E-02  0.2907624E+00
         22   -1    0    0    0    0  0.00000000000E+00  0.00000000000E+00  0.51723746664E+02  0.51723746664E+02  0.00000000000E+00 0. -1.
         22   -1    0    0    0    0 -0.00000000000E+00 -0.00000000000E+00 -0.87142563223E-01  0.87142563223E-01  0.00000000000E+00 0.  1.
          4    1    1    2  501    0  0.15385218098E+01  0.70023414308E+00  0.23469214906E+02  0.23564259495E+02  0.12700000000E+01 0.  1.
         -4    1    1    2    0  501 -0.15385218098E+01 -0.70023414308E+00  0.28167389194E+02  0.28246629732E+02  0.12700000000E+01 0.  1.
<mgrwt>
<rscale>  0 0.21143030E+01</rscale>
<asrwt>0</asrwt>
<pdfrwt beam="1">0</pdfrwt>
<pdfrwt beam="2">0</pdfrwt>
<totfact> 0.30974226E+12</totfact>
</mgrwt>
</event>
<event>
 4    1  0.1750553E+006  0.4393019E+01  0.7546771E-02  0.2207924E+00
         22   -1    0    0    0    0  0.00000000000E+00  0.00000000000E+00  0.11711825510E+02  0.11711825510E+02  0.00000000000E+00 0.  1.
         22   -1    0    0    0    0 -0.00000000000E+00 -0.00000000000E+00 -0.20210474888E+01  0.20210474888E+01  0.00000000000E+00 0. -1.
          4    1    1    2  501    0 -0.42033010123E+01  0.13408073570E+00  0.77962449358E+01  0.89487458419E+01  0.12700000000E+01 0.  1.
         -4    1    1    2    0  501  0.42033010123E+01 -0.13408073570E+00  0.18945330857E+01  0.47841271572E+01  0.12700000000E+01 0. -1.
<mgrwt>
<rscale>  0 0.43930191E+01</rscale>
<asrwt>0</asrwt>
<pdfrwt beam="1">0</pdfrwt>
<pdfrwt beam="2">0</pdfrwt>
<totfact> 0.58332537E+11</totfact>
</mgrwt>
</event>
<event>
 4    1  0.1750553E+006  0.2474039E+01  0.7546771E-02  0.2720087E+00
         22   -1    0    0    0    0  0.00000000000E+00  0.00000000000E+00  0.40914486144E+00  0.40914486144E+00  0.00000000000E+00 0. -1.
         22   -1    0    0    0    0 -0.00000000000E+00 -0.00000000000E+00 -0.53814785575E+02  0.53814785575E+02  0.00000000000E+00 0.  1.
          4    1    1    2  501    0 -0.38524836685E+00  0.20879540423E+01 -0.36655184881E+01  0.44223177378E+01  0.12700000000E+01 0. -1.
         -4    1    1    2    0  501  0.38524836685E+00 -0.20879540423E+01 -0.49740122226E+02  0.49801612699E+02  0.12700000000E+01 0.  1.
<mgrwt>
<rscale>  0 0.24740389E+01</rscale>
<asrwt>0</asrwt>
<pdfrwt beam="1">0</pdfrwt>
<pdfrwt beam="2">0</pdfrwt>
<totfact> 0.52394299E+11</totfact>
</mgrwt>
</event>
<event>
 4    1  0.1750553E+006  0.2232681E+01  0.7546771E-02  0.2839566E+00
         22   -1    0    0    0    0  0.00000000000E+00  0.00000000000E+00  0.51122035301E+02  0.51122035301E+02  0.00000000000E+00 0.  1.
         22   -1    0    0    0    0 -0.00000000000E+00 -0.00000000000E+00 -0.77886007015E+00  0.77886007015E+00  0.00000000000E+00 0.  1.
          4    1    1    2  501    0  0.15821786952E+01 -0.93202799177E+00  0.49443308093E+02  0.49493692333E+02  0.12700000000E+01 0.  1.
         -4    1    1    2    0  501 -0.15821786952E+01  0.93202799177E+00  0.89986713823E+00  0.24072030382E+01  0.12700000000E+01 0.  1.
<mgrwt>
<rscale>  0 0.22326813E+01</rscale>
<asrwt>0</asrwt>
<pdfrwt beam="1">0</pdfrwt>
<pdfrwt beam="2">0</pdfrwt>
<totfact> 0.27068550E+11</totfact>
</mgrwt>
</event>
<event>
 4    1  0.1750553E+006  0.4561827E+01  0.7546771E-02  0.2181248E+00
         22   -1    0    0    0    0  0.00000000000E+00  0.00000000000E+00  0.36475888527E+02  0.36475888527E+02  0.00000000000E+00 0.  1.
         22   -1    0    0    0    0 -0.00000000000E+00 -0.00000000000E+00 -0.18498364757E+01  0.18498364757E+01  0.00000000000E+00 0. -1.
          4    1    1    2  501    0  0.14187421823E+01 -0.41454233029E+01  0.33249143600E+02  0.33560628926E+02  0.12700000000E+01 0.  1.
         -4    1    1    2    0  501 -0.14187421823E+01  0.41454233029E+01  0.13769084510E+01  0.47650960769E+01  0.12700000000E+01 0. -1.
<mgrwt>
<rscale>  0 0.45618268E+01</rscale>
<asrwt>0</asrwt>
<pdfrwt beam="1">0</pdfrwt>
<pdfrwt beam="2">0</pdfrwt>
<totfact> 0.15607087E+11</totfact>
</mgrwt>
</event>
<event>
 4    1  0.1750553E+006  0.3502230E+01  0.7546771E-02  0.2383910E+00
         22   -1    0    0    0    0  0.00000000000E+00  0.00000000000E+00  0.23057584191E+01  0.23057584191E+01  0.00000000000E+00 0. -1.
         22   -1    0    0    0    0 -0.00000000000E+00 -0.00000000000E+00 -0.56083604888E+01  0.56083604888E+01  0.00000000000E+00 0.  1.
          4    1    1    2  501    0  0.27784436887E+01  0.17125899446E+01 -0.75334364043E+00  0.35823372664E+01  0.12700000000E+01 0. -1.
         -4    1    1    2    0  501 -0.27784436887E+01 -0.17125899446E+01 -0.25492584292E+01  0.43317816414E+01  0.12700000000E+01 0.  1.
<mgrwt>
<rscale>  0 0.35022298E+01</rscale>
<asrwt>0</asrwt>
<pdfrwt beam="1">0</pdfrwt>
<pdfrwt beam="2">0</pdfrwt>
<totfact> 0.12134959E+12</totfact>
</mgrwt>
</event>
<event>
 4    1  0.1750553E+006  0.2321174E+01  0.7546771E-02  0.2793035E+00
         22   -1    0    0    0    0  0.00000000000E+00  0.00000000000E+00  0.43466489807E+02  0.43466489807E+02  0.00000000000E+00 0. -1.
         22   -1    0    0    0    0 -0.00000000000E+00 -0.00000000000E+00 -0.16052863702E+00  0.16052863702E+00  0.00000000000E+00 0.  1.
          4    1    1    2  501    0  0.84261288988E+00  0.17507005763E+01  0.32065091455E+02  0.32148995925E+02  0.12700000000E+01 0. -1.
         -4    1    1    2    0  501 -0.84261288988E+00 -0.17507005763E+01  0.11240869715E+02  0.11478022519E+02  0.12700000000E+01 0.  1.
<mgrwt>
<rscale>  0 0.23211741E+01</rscale>
<asrwt>0</asrwt>
<pdfrwt beam="1">0</pdfrwt>
<pdfrwt beam="2">0</pdfrwt>
<totfact> 0.19770408E+12</totfact>
</mgrwt>
</event>
<event>
 4    1  0.1750553E+006  0.2901133E+01  0.7546771E-02  0.2554377E+00
         22   -1    0    0    0    0  0.00000000000E+00  0.00000000000E+00  0.10263955864E+02  0.10263955864E+02  0.00000000000E+00 0. -1.
         22   -1    0    0    0    0 -0.00000000000E+00 -0.00000000000E+00 -0.18640578072E+01  0.18640578072E+01  0.00000000000E+00 0.  1.
          4    1    1    2  501    0  0.10339061287E+01 -0.23947260301E+01  0.87382115594E+01  0.92072208564E+01  0.12700000000E+01 0. -1.
         -4    1    1    2    0  501 -0.10339061287E+01  0.23947260301E+01 -0.33831350240E+00  0.29207928150E+01  0.12700000000E+01 0.  1.
<mgrwt>
<rscale>  0 0.29011333E+01</rscale>
<asrwt>0</asrwt>
<pdfrwt beam="1">0</pdfrwt>
<pdfrwt beam="2">0</pdfrwt>
<totfact> 0.75190487E+11</totfact>
</mgrwt>
</event>
<event>
 4    1  0.1750553E+006  0.5308274E+01  0.7546771E-02  0.2087910E+00
         22   -1    0    0    0    0  0.00000000000E+00  0.00000000000E+00  0.32315718676E+02  0.32315718676E+02  0.00000000000E+00 0.  1.
         22   -1    0    0    0    0 -0.00000000000E+00 -0.00000000000E+00 -0.57504320509E+01  0.57504320509E+01  0.00000000000E+00 0. -1.
          4    1    1    2  501    0 -0.46158383367E+01  0.22932305167E+01  0.30813412683E+02  0.31267301945E+02  0.12700000000E+01 0.  1.
         -4    1    1    2    0  501  0.46158383367E+01 -0.22932305167E+01 -0.42481260579E+01  0.67988487818E+01  0.12700000000E+01 0. -1.
<mgrwt>
<rscale>  0 0.53082737E+01</rscale>
<asrwt>0</asrwt>
<pdfrwt beam="1">0</pdfrwt>
<pdfrwt beam="2">0</pdfrwt>
<totfact> 0.48310720E+10</totfact>
</mgrwt>
</event>
<event>
 4    1  0.1750553E+006  0.2827370E+01  0.7546771E-02  0.2579718E+00
         22   -1    0    0    0    0  0.00000000000E+00  0.00000000000E+00  0.82015264831E+02  0.82015264831E+02  0.00000000000E+00 0.  1.
         22   -1    0    0    0    0 -0.00000000000E+00 -0.00000000000E+00 -0.10295365659E+00  0.10295365659E+00  0.00000000000E+00 0. -1.
          4    1    1    2  501    0  0.52721848885E+00  0.24704578700E+01  0.50432195252E+02  0.50511388215E+02  0.12700000000E+01 0. -1.
         -4    1    1    2    0  501 -0.52721848885E+00 -0.24704578700E+01  0.31480115922E+02  0.31606830273E+02  0.12700000000E+01 0. -1.
<mgrwt>
<rscale>  0 0.28273701E+01</rscale>
<asrwt>0</asrwt>
<pdfrwt beam="1">0</pdfrwt>
<pdfrwt beam="2">0</pdfrwt>
<totfact> 0.13833053E+12</totfact>
</mgrwt>
</event>
<event>
 4    1  0.1750553E+006  0.2247507E+01  0.7546771E-02  0.2831528E+00
         22   -1    0    0    0    0  0.00000000000E+00  0.00000000000E+00  0.32917052906E+00  0.32917052906E+00  0.00000000000E+00 0. -1.
         22   -1    0    0    0    0 -0.00000000000E+00 -0.00000000000E+00 -0.19481573640E+02  0.19481573640E+02  0.00000000000E+00 0. -1.
          4    1    1    2  501    0  0.18182768127E+01 -0.36367362896E+00 -0.50121296941E+01  0.54929712494E+01  0.12700000000E+01 0. -1.
         -4    1    1    2    0  501 -0.18182768127E+01  0.36367362896E+00 -0.14140273417E+02  0.14317772919E+02  0.12700000000E+01 0. -1.
<mgrwt>
<rscale>  0 0.22475073E+01</rscale>
<asrwt>0</asrwt>
<pdfrwt beam="1">0</pdfrwt>
<pdfrwt beam="2">0</pdfrwt>
<totfact> 0.24617648E+12</totfact>
</mgrwt>
</event>
<event>
 4    1  0.1750553E+006  0.3226803E+01  0.7546771E-02  0.2455028E+00
         22   -1    0    0    0    0  0.00000000000E+00  0.00000000000E+00  0.74399140118E+00  0.74399140118E+00  0.00000000000E+00 0.  1.
         22   -1    0    0    0    0 -0.00000000000E+00 -0.00000000000E+00 -0.14000277141E+02  0.14000277141E+02  0.00000000000E+00 0. -1.
          4    1    1    2  501    0 -0.20843656864E+01 -0.21106342426E+01 -0.67694812708E+01  0.74992088847E+01  0.12700000000E+01 0.  1.
         -4    1    1    2    0  501  0.20843656864E+01  0.21106342426E+01 -0.64868044687E+01  0.72450596572E+01  0.12700000000E+01 0. -1.
<mgrwt>
<rscale>  0 0.32268029E+01</rscale>
<asrwt>0</asrwt>
<pdfrwt beam="1">0</pdfrwt>
<pdfrwt beam="2">0</pdfrwt>
<totfact> 0.14747490E+12</totfact>
</mgrwt>
</event>
<event>
 4    1  0.1750553E+006  0.3052667E+01  0.7546771E-02  0.2505794E+00
         22   -1    0    0    0    0  0.00000000000E+00  0.00000000000E+00  0.51000408751E+01  0.51000408751E+01  0.00000000000E+00 0.  1.
         22   -1    0    0    0    0 -0.00000000000E+00 -0.00000000000E+00 -0.18281781913E+01  0.18281781913E+01  0.00000000000E+00 0. -1.
          4    1    1    2  501    0  0.21891623831E+01  0.17068807328E+01  0.17162289390E+01  0.35020302036E+01  0.12700000000E+01 0.  1.
         -4    1    1    2    0  501 -0.21891623831E+01 -0.17068807328E+01  0.15556337448E+01  0.34261888628E+01  0.12700000000E+01 0. -1.
<mgrwt>
<rscale>  0 0.30526667E+01</rscale>
<asrwt>0</asrwt>
<pdfrwt beam="1">0</pdfrwt>
<pdfrwt beam="2">0</pdfrwt>
<totfact> 0.17771308E+12</totfact>
</mgrwt>
</event>
<event>
 4    1  0.1750553E+006  0.2646145E+01  0.7546771E-02  0.2647407E+00
         22   -1    0    0    0    0  0.00000000000E+00  0.00000000000E+00  0.41354695849E+00  0.41354695849E+00  0.00000000000E+00 0.  1.
         22   -1    0    0    0    0 -0.00000000000E+00 -0.00000000000E+00 -0.17233700787E+02  0.17233700787E+02  0.00000000000E+00 0. -1.
          4    1    1    2  501    0  0.21384117595E+01 -0.90353526580E+00 -0.72421560346E+01  0.77104412882E+01  0.12700000000E+01 0. -1.
         -4    1    1    2    0  501 -0.21384117595E+01  0.90353526580E+00 -0.95779977944E+01  0.99368064577E+01  0.12700000000E+01 0.  1.
<mgrwt>
<rscale>  0 0.26461445E+01</rscale>
<asrwt>0</asrwt>
<pdfrwt beam="1">0</pdfrwt>
<pdfrwt beam="2">0</pdfrwt>
<totfact> 0.22179688E+12</totfact>
</mgrwt>
</event>
<event>
 4    1  0.1750553E+006  0.2249670E+01  0.7546771E-02  0.2830362E+00
         22   -1    0    0    0    0  0.00000000000E+00  0.00000000000E+00  0.95644803738E-01  0.95644803738E-01  0.00000000000E+00 0.  1.
         22   -1    0    0    0    0 -0.00000000000E+00 -0.00000000000E+00 -0.61008576699E+02  0.61008576699E+02  0.00000000000E+00 0. -1.
          4    1    1    2  501    0 -0.16082143658E+01 -0.92831226220E+00 -0.19328295143E+02  0.19458777203E+02  0.12700000000E+01 0.  1.
         -4    1    1    2    0  501  0.16082143658E+01  0.92831226220E+00 -0.41584636752E+02  0.41645444300E+02  0.12700000000E+01 0. -1.
<mgrwt>
<rscale>  0 0.22496704E+01</rscale>
<asrwt>0</asrwt>
<pdfrwt beam="1">0</pdfrwt>
<pdfrwt beam="2">0</pdfrwt>
<totfact> 0.22431202E+12</totfact>
</mgrwt>
</event>
<event>
 4    1  0.1750553E+006  0.2432736E+01  0.7546771E-02  0.2738948E+00
         22   -1    0    0    0    0  0.00000000000E+00  0.00000000000E+00  0.12756416611E+01  0.12756416611E+01  0.00000000000E+00 0.  1.
         22   -1    0    0    0    0 -0.00000000000E+00 -0.00000000000E+00 -0.47588399033E+01  0.47588399033E+01  0.00000000000E+00 0. -1.
          4    1    1    2  501    0 -0.13108407932E+01  0.16084153242E+01 -0.12635789398E+01  0.27413199699E+01  0.12700000000E+01 0.  1.
         -4    1    1    2    0  501  0.13108407932E+01 -0.16084153242E+01 -0.22196193024E+01  0.32931615946E+01  0.12700000000E+01 0. -1.
<mgrwt>
<rscale>  0 0.24327358E+01</rscale>
<asrwt>0</asrwt>
<pdfrwt beam="1">0</pdfrwt>
<pdfrwt beam="2">0</pdfrwt>
<totfact> 0.29187682E+12</totfact>
</mgrwt>
</event>
<event>
 4    1  0.1750553E+006  0.3724600E+01  0.7546771E-02  0.2333246E+00
         22   -1    0    0    0    0  0.00000000000E+00  0.00000000000E+00  0.16218490331E+01  0.16218490331E+01  0.00000000000E+00 0. -1.
         22   -1    0    0    0    0 -0.00000000000E+00 -0.00000000000E+00 -0.13760749404E+02  0.13760749404E+02  0.00000000000E+00 0. -1.
          4    1    1    2  501    0 -0.30258736043E+01  0.17617697481E+01 -0.13381686567E+01  0.39576936552E+01  0.12700000000E+01 0. -1.
         -4    1    1    2    0  501  0.30258736043E+01 -0.17617697481E+01 -0.10800731714E+02  0.11424904782E+02  0.12700000000E+01 0. -1.
<mgrwt>
<rscale>  0 0.37245998E+01</rscale>
<asrwt>0</asrwt>
<pdfrwt beam="1">0</pdfrwt>
<pdfrwt beam="2">0</pdfrwt>
<totfact> 0.61762494E+11</totfact>
</mgrwt>
</event>
<event>
 4    1  0.1750553E+006  0.2276248E+01  0.7546771E-02  0.2816228E+00
         22   -1    0    0    0    0  0.00000000000E+00  0.00000000000E+00  0.94474256417E+01  0.94474256417E+01  0.00000000000E+00 0. -1.
         22   -1    0    0    0    0 -0.00000000000E+00 -0.00000000000E+00 -0.57854594987E+00  0.57854594987E+00  0.00000000000E+00 0.  1.
          4    1    1    2  501    0 -0.18698541649E+01 -0.26841924045E+00  0.32908079535E+01  0.40013398348E+01  0.12700000000E+01 0. -1.
         -4    1    1    2    0  501  0.18698541649E+01  0.26841924045E+00  0.55780717383E+01  0.60246317568E+01  0.12700000000E+01 0.  1.
<mgrwt>
<rscale>  0 0.22762477E+01</rscale>
<asrwt>0</asrwt>
<pdfrwt beam="1">0</pdfrwt>
<pdfrwt beam="2">0</pdfrwt>
<totfact> 0.31660972E+12</totfact>
</mgrwt>
</event>
<event>
 4    1  0.1750553E+006  0.2039875E+01  0.7546771E-02  0.2954319E+00
         22   -1    0    0    0    0  0.00000000000E+00  0.00000000000E+00  0.53599071408E+01  0.53599071408E+01  0.00000000000E+00 0. -1.
         22   -1    0    0    0    0 -0.00000000000E+00 -0.00000000000E+00 -0.16403428356E+01  0.16403428356E+01  0.00000000000E+00 0. -1.
          4    1    1    2  501    0  0.15850387429E+01  0.18931616688E+00  0.44000227354E+01  0.48498751014E+01  0.12700000000E+01 0. -1.
         -4    1    1    2    0  501 -0.15850387429E+01 -0.18931616688E+00 -0.68045843019E+00  0.21503748749E+01  0.12700000000E+01 0. -1.
<mgrwt>
<rscale>  0 0.20398746E+01</rscale>
<asrwt>0</asrwt>
<pdfrwt beam="1">0</pdfrwt>
<pdfrwt beam="2">0</pdfrwt>
<totfact> 0.18985365E+12</totfact>
</mgrwt>
</event>
<event>
 4    1  0.1750553E+006  0.2245853E+01  0.7546771E-02  0.2832419E+00
         22   -1    0    0    0    0  0.00000000000E+00  0.00000000000E+00  0.24631600176E+01  0.24631600176E+01  0.00000000000E+00 0.  1.
         22   -1    0    0    0    0 -0.00000000000E+00 -0.00000000000E+00 -0.22275288069E+01  0.22275288069E+01  0.00000000000E+00 0.  1.
          4    1    1    2  501    0  0.17689322983E+01 -0.54939445941E+00 -0.54853611490E+00  0.23118710209E+01  0.12700000000E+01 0.  1.
         -4    1    1    2    0  501 -0.17689322983E+01  0.54939445941E+00  0.78416732559E+00  0.23788178036E+01  0.12700000000E+01 0.  1.
<mgrwt>
<rscale>  0 0.22458530E+01</rscale>
<asrwt>0</asrwt>
<pdfrwt beam="1">0</pdfrwt>
<pdfrwt beam="2">0</pdfrwt>
<totfact> 0.33205619E+12</totfact>
</mgrwt>
</event>
<event>
 4    1  0.1750553E+006  0.2366205E+01  0.7546771E-02  0.2770625E+00
         22   -1    0    0    0    0  0.00000000000E+00  0.00000000000E+00  0.13559589945E+02  0.13559589945E+02  0.00000000000E+00 0. -1.
         22   -1    0    0    0    0 -0.00000000000E+00 -0.00000000000E+00 -0.41580102432E+00  0.41580102432E+00  0.00000000000E+00 0. -1.
          4    1    1    2  501    0  0.93344044919E+00  0.17648554616E+01  0.59894965041E+01  0.64399529692E+01  0.12700000000E+01 0. -1.
         -4    1    1    2    0  501 -0.93344044919E+00 -0.17648554616E+01  0.71542924168E+01  0.75354380004E+01  0.12700000000E+01 0. -1.
<mgrwt>
<rscale>  0 0.23662050E+01</rscale>
<asrwt>0</asrwt>
<pdfrwt beam="1">0</pdfrwt>
<pdfrwt beam="2">0</pdfrwt>
<totfact> 0.29617194E+12</totfact>
</mgrwt>
</event>
<event>
 4    1  0.1750553E+006  0.2002451E+01  0.7546771E-02  0.2979076E+00
         22   -1    0    0    0    0  0.00000000000E+00  0.00000000000E+00  0.10231666591E+02  0.10231666591E+02  0.00000000000E+00 0.  1.
         22   -1    0    0    0    0 -0.00000000000E+00 -0.00000000000E+00 -0.93213689852E+00  0.93213689852E+00  0.00000000000E+00 0. -1.
          4    1    1    2  501    0  0.12598339107E+01  0.89984913459E+00  0.88992242151E+01  0.91217323781E+01  0.12700000000E+01 0.  1.
         -4    1    1    2    0  501 -0.12598339107E+01 -0.89984913459E+00  0.40030547698E+00  0.20420711110E+01  0.12700000000E+01 0. -1.
<mgrwt>
<rscale>  0 0.20024510E+01</rscale>
<asrwt>0</asrwt>
<pdfrwt beam="1">0</pdfrwt>
<pdfrwt beam="2">0</pdfrwt>
<totfact> 0.16720832E+12</totfact>
</mgrwt>
</event>
<event>
 4    1  0.1750553E+006  0.2668641E+01  0.7546771E-02  0.2638548E+00
         22   -1    0    0    0    0  0.00000000000E+00  0.00000000000E+00  0.78655584030E+01  0.78655584030E+01  0.00000000000E+00 0. -1.
         22   -1    0    0    0    0 -0.00000000000E+00 -0.00000000000E+00 -0.10180770014E+01  0.10180770014E+01  0.00000000000E+00 0.  1.
          4    1    1    2  501    0  0.19880440321E+01 -0.12475676748E+01  0.19461743579E+01  0.33029136847E+01  0.12700000000E+01 0. -1.
         -4    1    1    2    0  501 -0.19880440321E+01  0.12475676748E+01  0.49013070437E+01  0.55807217197E+01  0.12700000000E+01 0. -1.
<mgrwt>
<rscale>  0 0.26686409E+01</rscale>
<asrwt>0</asrwt>
<pdfrwt beam="1">0</pdfrwt>
<pdfrwt beam="2">0</pdfrwt>
<totfact> 0.20766340E+12</totfact>
</mgrwt>
</event>
<event>
 4    1  0.1750553E+006  0.2300660E+01  0.7546771E-02  0.2803518E+00
         22   -1    0    0    0    0  0.00000000000E+00  0.00000000000E+00  0.48820686270E+00  0.48820686270E+00  0.00000000000E+00 0. -1.
         22   -1    0    0    0    0 -0.00000000000E+00 -0.00000000000E+00 -0.17044928121E+02  0.17044928121E+02  0.00000000000E+00 0. -1.
          4    1    1    2  501    0  0.10674977292E+01  0.15939219876E+01 -0.29897992929E+01  0.37725241572E+01  0.12700000000E+01 0. -1.
         -4    1    1    2    0  501 -0.10674977292E+01 -0.15939219876E+01 -0.13566921965E+02  0.13760610826E+02  0.12700000000E+01 0. -1.
<mgrwt>
<rscale>  0 0.23006605E+01</rscale>
<asrwt>0</asrwt>
<pdfrwt beam="1">0</pdfrwt>
<pdfrwt beam="2">0</pdfrwt>
<totfact> 0.18646364E+12</totfact>
</mgrwt>
</event>
<event>
 4    1  0.1750553E+006  0.2070814E+01  0.7546771E-02  0.2934512E+00
         22   -1    0    0    0    0  0.00000000000E+00  0.00000000000E+00  0.45205709314E+01  0.45205709314E+01  0.00000000000E+00 0.  1.
         22   -1    0    0    0    0 -0.00000000000E+00 -0.00000000000E+00 -0.14866310717E+01  0.14866310717E+01  0.00000000000E+00 0. -1.
          4    1    1    2  501    0  0.10554481733E+01 -0.12495601867E+01  0.33238908455E+01  0.39161871584E+01  0.12700000000E+01 0.  1.
         -4    1    1    2    0  501 -0.10554481733E+01  0.12495601867E+01 -0.28995098581E+00  0.20910148447E+01  0.12700000000E+01 0.  1.
<mgrwt>
<rscale>  0 0.20708142E+01</rscale>
<asrwt>0</asrwt>
<pdfrwt beam="1">0</pdfrwt>
<pdfrwt beam="2">0</pdfrwt>
<totfact> 0.26011602E+12</totfact>
</mgrwt>
</event>
<event>
 4    1  0.1750553E+006  0.3390663E+01  0.7546771E-02  0.2411495E+00
         22   -1    0    0    0    0  0.00000000000E+00  0.00000000000E+00  0.10974177110E+01  0.10974177110E+01  0.00000000000E+00 0. -1.
         22   -1    0    0    0    0 -0.00000000000E+00 -0.00000000000E+00 -0.24452253956E+02  0.24452253956E+02  0.00000000000E+00 0. -1.
          4    1    1    2  501    0  0.18517272463E+01  0.25406299027E+01 -0.20193421521E+01  0.39464334309E+01  0.12700000000E+01 0. -1.
         -4    1    1    2    0  501 -0.18517272463E+01 -0.25406299027E+01 -0.21335494093E+02  0.21603238236E+02  0.12700000000E+01 0. -1.
<mgrwt>
<rscale>  0 0.33906628E+01</rscale>
<asrwt>0</asrwt>
<pdfrwt beam="1">0</pdfrwt>
<pdfrwt beam="2">0</pdfrwt>
<totfact> 0.47350894E+11</totfact>
</mgrwt>
</event>
<event>
 4    1  0.1750553E+006  0.2434426E+01  0.7546771E-02  0.2738165E+00
         22   -1    0    0    0    0  0.00000000000E+00  0.00000000000E+00  0.78521565792E+00  0.78521565792E+00  0.00000000000E+00 0.  1.
         22   -1    0    0    0    0 -0.00000000000E+00 -0.00000000000E+00 -0.77680261271E+01  0.77680261271E+01  0.00000000000E+00 0. -1.
          4    1    1    2  501    0  0.82039044564E+00 -0.19080060713E+01 -0.27708624105E+01  0.36883744589E+01  0.12700000000E+01 0.  1.
         -4    1    1    2    0  501 -0.82039044564E+00  0.19080060713E+01 -0.42119480586E+01  0.48648673260E+01  0.12700000000E+01 0. -1.
<mgrwt>
<rscale>  0 0.24344255E+01</rscale>
<asrwt>0</asrwt>
<pdfrwt beam="1">0</pdfrwt>
<pdfrwt beam="2">0</pdfrwt>
<totfact> 0.28340846E+12</totfact>
</mgrwt>
</event>
<event>
 4    1  0.1750553E+006  0.2966212E+01  0.7546771E-02  0.2532966E+00
         22   -1    0    0    0    0  0.00000000000E+00  0.00000000000E+00  0.11426202999E+01  0.11426202999E+01  0.00000000000E+00 0.  1.
         22   -1    0    0    0    0 -0.00000000000E+00 -0.00000000000E+00 -0.92469519337E+01  0.92469519337E+01  0.00000000000E+00 0. -1.
          4    1    1    2  501    0 -0.25920326191E+01 -0.68328508784E+00 -0.19275624158E+01  0.35375003147E+01  0.12700000000E+01 0.  1.
         -4    1    1    2    0  501  0.25920326191E+01  0.68328508784E+00 -0.61767692179E+01  0.68520719189E+01  0.12700000000E+01 0. -1.
<mgrwt>
<rscale>  0 0.29662117E+01</rscale>
<asrwt>0</asrwt>
<pdfrwt beam="1">0</pdfrwt>
<pdfrwt beam="2">0</pdfrwt>
<totfact> 0.14977591E+12</totfact>
</mgrwt>
</event>
<event>
 4    1  0.1750553E+006  0.3183452E+01  0.7546771E-02  0.2467204E+00
         22   -1    0    0    0    0  0.00000000000E+00  0.00000000000E+00  0.51772595938E+01  0.51772595938E+01  0.00000000000E+00 0.  1.
         22   -1    0    0    0    0 -0.00000000000E+00 -0.00000000000E+00 -0.20417755094E+01  0.20417755094E+01  0.00000000000E+00 0.  1.
          4    1    1    2  501    0  0.18588516667E+01  0.22508085973E+01  0.23011641130E+01  0.39280688812E+01  0.12700000000E+01 0.  1.
         -4    1    1    2    0  501 -0.18588516667E+01 -0.22508085973E+01  0.83431997128E+00  0.32909662220E+01  0.12700000000E+01 0.  1.
<mgrwt>
<rscale>  0 0.31834523E+01</rscale>
<asrwt>0</asrwt>
<pdfrwt beam="1">0</pdfrwt>
<pdfrwt beam="2">0</pdfrwt>
<totfact> 0.15363222E+12</totfact>
</mgrwt>
</event>
<event>
 4    1  0.1750553E+006  0.2825458E+01  0.7546771E-02  0.2580391E+00
         22   -1    0    0    0    0  0.00000000000E+00  0.00000000000E+00  0.18794607416E+02  0.18794607416E+02  0.00000000000E+00 0. -1.
         22   -1    0    0    0    0 -0.00000000000E+00 -0.00000000000E+00 -0.55771470502E+00  0.55771470502E+00  0.00000000000E+00 0.  1.
          4    1    1    2  501    0 -0.22989522879E+01  0.10416965936E+01  0.13842855577E+02  0.14128264718E+02  0.12700000000E+01 0. -1.
         -4    1    1    2    0  501  0.22989522879E+01 -0.10416965936E+01  0.43940371336E+01  0.52240574027E+01  0.12700000000E+01 0.  1.
<mgrwt>
<rscale>  0 0.28254581E+01</rscale>
<asrwt>0</asrwt>
<pdfrwt beam="1">0</pdfrwt>
<pdfrwt beam="2">0</pdfrwt>
<totfact> 0.14211858E+12</totfact>
</mgrwt>
</event>
<event>
 4    1  0.1750553E+006  0.2128692E+01  0.7546771E-02  0.2898963E+00
         22   -1    0    0    0    0  0.00000000000E+00  0.00000000000E+00  0.67338846320E+01  0.67338846320E+01  0.00000000000E+00 0. -1.
         22   -1    0    0    0    0 -0.00000000000E+00 -0.00000000000E+00 -0.41822453704E+01  0.41822453704E+01  0.00000000000E+00 0. -1.
          4    1    1    2  501    0 -0.38671290733E+00  0.16639956078E+01  0.62755445510E+01  0.66267478953E+01  0.12700000000E+01 0. -1.
         -4    1    1    2    0  501  0.38671290733E+00 -0.16639956078E+01 -0.37239052895E+01  0.42893821071E+01  0.12700000000E+01 0. -1.
<mgrwt>
<rscale>  0 0.21286917E+01</rscale>
<asrwt>0</asrwt>
<pdfrwt beam="1">0</pdfrwt>
<pdfrwt beam="2">0</pdfrwt>
<totfact> 0.48640309E+11</totfact>
</mgrwt>
</event>
<event>
 4    1  0.1750553E+006  0.2220805E+01  0.7546771E-02  0.2846080E+00
         22   -1    0    0    0    0  0.00000000000E+00  0.00000000000E+00  0.12477850559E+03  0.12477850559E+03  0.00000000000E+00 0.  1.
         22   -1    0    0    0    0 -0.00000000000E+00 -0.00000000000E+00 -0.39773710370E-01  0.39773710370E-01  0.00000000000E+00 0.  1.
          4    1    1    2  501    0 -0.58166633021E+00  0.17264816010E+01  0.57442529680E+02  0.57485443292E+02  0.12700000000E+01 0.  1.
         -4    1    1    2    0  501  0.58166633021E+00 -0.17264816010E+01  0.67296202198E+02  0.67332836007E+02  0.12700000000E+01 0.  1.
<mgrwt>
<rscale>  0 0.22208049E+01</rscale>
<asrwt>0</asrwt>
<pdfrwt beam="1">0</pdfrwt>
<pdfrwt beam="2">0</pdfrwt>
<totfact> 0.21831113E+12</totfact>
</mgrwt>
</event>
<event>
 4    1  0.1750553E+006  0.3335170E+01  0.7546771E-02  0.2425816E+00
         22   -1    0    0    0    0  0.00000000000E+00  0.00000000000E+00  0.53279049127E+01  0.53279049127E+01  0.00000000000E+00 0.  1.
         22   -1    0    0    0    0 -0.00000000000E+00 -0.00000000000E+00 -0.28858957950E+01  0.28858957950E+01  0.00000000000E+00 0. -1.
          4    1    1    2  501    0 -0.24096146147E+01  0.19246334095E+01  0.33808058180E+01  0.47490214078E+01  0.12700000000E+01 0.  1.
         -4    1    1    2    0  501  0.24096146147E+01 -0.19246334095E+01 -0.93879670030E+00  0.34647792999E+01  0.12700000000E+01 0. -1.
<mgrwt>
<rscale>  0 0.33351696E+01</rscale>
<asrwt>0</asrwt>
<pdfrwt beam="1">0</pdfrwt>
<pdfrwt beam="2">0</pdfrwt>
<totfact> 0.99318363E+11</totfact>
</mgrwt>
</event>
<event>
 4    1  0.1750553E+006  0.2486198E+01  0.7546771E-02  0.2714646E+00
         22   -1    0    0    0    0  0.00000000000E+00  0.00000000000E+00  0.13517359657E+02  0.13517359657E+02  0.00000000000E+00 0.  1.
         22   -1    0    0    0    0 -0.00000000000E+00 -0.00000000000E+00 -0.46303326434E+00  0.46303326434E+00  0.00000000000E+00 0.  1.
          4    1    1    2  501    0 -0.19685312495E+01  0.83256530862E+00  0.73065380524E+01  0.77179452307E+01  0.12700000000E+01 0.  1.
         -4    1    1    2    0  501  0.19685312495E+01 -0.83256530862E+00  0.57477883405E+01  0.62624476908E+01  0.12700000000E+01 0.  1.
<mgrwt>
<rscale>  0 0.24861980E+01</rscale>
<asrwt>0</asrwt>
<pdfrwt beam="1">0</pdfrwt>
<pdfrwt beam="2">0</pdfrwt>
<totfact> 0.26335630E+12</totfact>
</mgrwt>
</event>
<event>
 4    1  0.1750553E+006  0.2192931E+01  0.7546771E-02  0.2861632E+00
         22   -1    0    0    0    0  0.00000000000E+00  0.00000000000E+00  0.15990484388E+01  0.15990484388E+01  0.00000000000E+00 0.  1.
         22   -1    0    0    0    0 -0.00000000000E+00 -0.00000000000E+00 -0.32121686227E+01  0.32121686227E+01  0.00000000000E+00 0.  1.
          4    1    1    2  501    0  0.20396511809E+00  0.17760757833E+01 -0.19915523546E+00  0.22019558954E+01  0.12700000000E+01 0.  1.
         -4    1    1    2    0  501 -0.20396511809E+00 -0.17760757833E+01 -0.14139649484E+01  0.26092611661E+01  0.12700000000E+01 0.  1.
<mgrwt>
<rscale>  0 0.21929311E+01</rscale>
<asrwt>0</asrwt>
<pdfrwt beam="1">0</pdfrwt>
<pdfrwt beam="2">0</pdfrwt>
<totfact> 0.35738949E+12</totfact>
</mgrwt>
</event>
<event>
 4    1  0.1750553E+006  0.3062330E+01  0.7546771E-02  0.2502843E+00
         22   -1    0    0    0    0  0.00000000000E+00  0.00000000000E+00  0.11399727010E+03  0.11399727010E+03  0.00000000000E+00 0. -1.
         22   -1    0    0    0    0 -0.00000000000E+00 -0.00000000000E+00 -0.83682893467E-01  0.83682893467E-01  0.00000000000E+00 0.  1.
          4    1    1    2  501    0 -0.18047385201E+01  0.21231783851E+01  0.64384331191E+02  0.64457117299E+02  0.12700000000E+01 0. -1.
         -4    1    1    2    0  501  0.18047385201E+01 -0.21231783851E+01  0.49529256011E+02  0.49623835690E+02  0.12700000000E+01 0.  1.
<mgrwt>
<rscale>  0 0.30623304E+01</rscale>
<asrwt>0</asrwt>
<pdfrwt beam="1">0</pdfrwt>
<pdfrwt beam="2">0</pdfrwt>
<totfact> 0.10961362E+12</totfact>
</mgrwt>
</event>
<event>
 4    1  0.1750553E+006  0.2530403E+01  0.7546771E-02  0.2695276E+00
         22   -1    0    0    0    0  0.00000000000E+00  0.00000000000E+00  0.11723446739E+01  0.11723446739E+01  0.00000000000E+00 0. -1.
         22   -1    0    0    0    0 -0.00000000000E+00 -0.00000000000E+00 -0.93110292187E+01  0.93110292187E+01  0.00000000000E+00 0. -1.
          4    1    1    2  501    0 -0.19843951687E+01  0.92315364924E+00 -0.69905006078E+00  0.26251871997E+01  0.12700000000E+01 0. -1.
         -4    1    1    2    0  501  0.19843951687E+01 -0.92315364924E+00 -0.74396344840E+01  0.78581866929E+01  0.12700000000E+01 0. -1.
<mgrwt>
<rscale>  0 0.25304025E+01</rscale>
<asrwt>0</asrwt>
<pdfrwt beam="1">0</pdfrwt>
<pdfrwt beam="2">0</pdfrwt>
<totfact> 0.14422544E+12</totfact>
</mgrwt>
</event>
<event>
 4    1  0.1750553E+006  0.2049874E+01  0.7546771E-02  0.2947854E+00
         22   -1    0    0    0    0  0.00000000000E+00  0.00000000000E+00  0.20147093615E+01  0.20147093615E+01  0.00000000000E+00 0. -1.
         22   -1    0    0    0    0 -0.00000000000E+00 -0.00000000000E+00 -0.34390100483E+01  0.34390100483E+01  0.00000000000E+00 0.  1.
          4    1    1    2  501    0  0.13970974389E+01  0.79824917726E+00  0.99846512803E+00  0.22801130706E+01  0.12700000000E+01 0. -1.
         -4    1    1    2    0  501 -0.13970974389E+01 -0.79824917726E+00 -0.24227658148E+01  0.31736063392E+01  0.12700000000E+01 0.  1.
<mgrwt>
<rscale>  0 0.20498739E+01</rscale>
<asrwt>0</asrwt>
<pdfrwt beam="1">0</pdfrwt>
<pdfrwt beam="2">0</pdfrwt>
<totfact> 0.25265612E+12</totfact>
</mgrwt>
</event>
<event>
 4    1  0.1750553E+006  0.2810687E+01  0.7546771E-02  0.2585616E+00
         22   -1    0    0    0    0  0.00000000000E+00  0.00000000000E+00  0.97336292586E+00  0.97336292586E+00  0.00000000000E+00 0.  1.
         22   -1    0    0    0    0 -0.00000000000E+00 -0.00000000000E+00 -0.87217910581E+01  0.87217910581E+01  0.00000000000E+00 0.  1.
          4    1    1    2  501    0 -0.16450655696E+01  0.18923058267E+01 -0.51516189974E+01  0.58684870592E+01  0.12700000000E+01 0.  1.
         -4    1    1    2    0  501  0.16450655696E+01 -0.18923058267E+01 -0.25968091348E+01  0.38266669247E+01  0.12700000000E+01 0.  1.
<mgrwt>
<rscale>  0 0.28106871E+01</rscale>
<asrwt>0</asrwt>
<pdfrwt beam="1">0</pdfrwt>
<pdfrwt beam="2">0</pdfrwt>
<totfact> 0.19304408E+12</totfact>
</mgrwt>
</event>
<event>
 4    1  0.1750553E+006  0.2574000E+01  0.7546771E-02  0.2676778E+00
         22   -1    0    0    0    0  0.00000000000E+00  0.00000000000E+00  0.85510087773E+00  0.85510087773E+00  0.00000000000E+00 0.  1.
         22   -1    0    0    0    0 -0.00000000000E+00 -0.00000000000E+00 -0.14154156805E+02  0.14154156805E+02  0.00000000000E+00 0. -1.
          4    1    1    2  501    0 -0.16545881197E+01  0.15082810748E+01 -0.16008232348E+01  0.30311893171E+01  0.12700000000E+01 0.  1.
         -4    1    1    2    0  501  0.16545881197E+01 -0.15082810748E+01 -0.11698232693E+02  0.11978068366E+02  0.12700000000E+01 0. -1.
<mgrwt>
<rscale>  0 0.25739995E+01</rscale>
<asrwt>0</asrwt>
<pdfrwt beam="1">0</pdfrwt>
<pdfrwt beam="2">0</pdfrwt>
<totfact> 0.12419922E+12</totfact>
</mgrwt>
</event>
<event>
 4    1  0.1750553E+006  0.6164451E+01  0.7546771E-02  0.2005246E+00
         22   -1    0    0    0    0  0.00000000000E+00  0.00000000000E+00  0.67154429324E+01  0.67154429324E+01  0.00000000000E+00 0. -1.
         22   -1    0    0    0    0 -0.00000000000E+00 -0.00000000000E+00 -0.65326929354E+01  0.65326929354E+01  0.00000000000E+00 0.  1.
          4    1    1    2  501    0  0.46145846385E+01  0.38849916997E+01 -0.23315554167E+01  0.65906450787E+01  0.12700000000E+01 0. -1.
         -4    1    1    2    0  501 -0.46145846385E+01 -0.38849916997E+01  0.25143054137E+01  0.66574907890E+01  0.12700000000E+01 0.  1.
<mgrwt>
<rscale>  0 0.61644507E+01</rscale>
<asrwt>0</asrwt>
<pdfrwt beam="1">0</pdfrwt>
<pdfrwt beam="2">0</pdfrwt>
<totfact> 0.28762432E+11</totfact>
</mgrwt>
</event>
<event>
 4    1  0.1750553E+006  0.2750757E+01  0.7546771E-02  0.2607340E+00
         22   -1    0    0    0    0  0.00000000000E+00  0.00000000000E+00  0.80511628027E+01  0.80511628027E+01  0.00000000000E+00 0. -1.
         22   -1    0    0    0    0 -0.00000000000E+00 -0.00000000000E+00 -0.98461716785E+00  0.98461716785E+00  0.00000000000E+00 0.  1.
          4    1    1    2  501    0  0.18753786429E+01  0.15610001206E+01  0.44969101526E+01  0.52715147113E+01  0.12700000000E+01 0.  1.
         -4    1    1    2    0  501 -0.18753786429E+01 -0.15610001206E+01  0.25696354822E+01  0.37642652593E+01  0.12700000000E+01 0. -1.
<mgrwt>
<rscale>  0 0.27507574E+01</rscale>
<asrwt>0</asrwt>
<pdfrwt beam="1">0</pdfrwt>
<pdfrwt beam="2">0</pdfrwt>
<totfact> 0.20978203E+12</totfact>
</mgrwt>
</event>
<event>
 4    1  0.1750553E+006  0.2085213E+01  0.7546771E-02  0.2925489E+00
         22   -1    0    0    0    0  0.00000000000E+00  0.00000000000E+00  0.73174104648E+01  0.73174104648E+01  0.00000000000E+00 0. -1.
         22   -1    0    0    0    0 -0.00000000000E+00 -0.00000000000E+00 -0.72080610993E+00  0.72080610993E+00  0.00000000000E+00 0.  1.
          4    1    1    2  501    0 -0.15610782881E+01  0.54612209009E+00  0.49826126628E+01  0.54013464716E+01  0.12700000000E+01 0. -1.
         -4    1    1    2    0  501  0.15610782881E+01 -0.54612209009E+00  0.16139916921E+01  0.26368701032E+01  0.12700000000E+01 0.  1.
<mgrwt>
<rscale>  0 0.20852134E+01</rscale>
<asrwt>0</asrwt>
<pdfrwt beam="1">0</pdfrwt>
<pdfrwt beam="2">0</pdfrwt>
<totfact> 0.33554252E+12</totfact>
</mgrwt>
</event>
<event>
 4    1  0.1750553E+006  0.2071030E+01  0.7546771E-02  0.2934376E+00
         22   -1    0    0    0    0  0.00000000000E+00  0.00000000000E+00  0.33008510399E+02  0.33008510399E+02  0.00000000000E+00 0. -1.
         22   -1    0    0    0    0 -0.00000000000E+00 -0.00000000000E+00 -0.66696626992E+00  0.66696626992E+00  0.00000000000E+00 0. -1.
          4    1    1    2  501    0 -0.15584630430E+01  0.49745042033E+00  0.31279542369E+02  0.31348029201E+02  0.12700000000E+01 0. -1.
         -4    1    1    2    0  501  0.15584630430E+01 -0.49745042033E+00  0.10620017600E+01  0.23274474678E+01  0.12700000000E+01 0. -1.
<mgrwt>
<rscale>  0 0.20710297E+01</rscale>
<asrwt>0</asrwt>
<pdfrwt beam="1">0</pdfrwt>
<pdfrwt beam="2">0</pdfrwt>
<totfact> 0.57020849E+11</totfact>
</mgrwt>
</event>
<event>
 4    1  0.1750553E+006  0.2171294E+01  0.7546771E-02  0.2873968E+00
         22   -1    0    0    0    0  0.00000000000E+00  0.00000000000E+00  0.18831762694E+02  0.18831762694E+02  0.00000000000E+00 0. -1.
         22   -1    0    0    0    0 -0.00000000000E+00 -0.00000000000E+00 -0.27179450127E+00  0.27179450127E+00  0.00000000000E+00 0. -1.
          4    1    1    2  501    0 -0.17610536907E+01 -0.17548050749E-01  0.11963037305E+02  0.12158485909E+02  0.12700000000E+01 0. -1.
         -4    1    1    2    0  501  0.17610536907E+01  0.17548050749E-01  0.65969308880E+01  0.69450712867E+01  0.12700000000E+01 0. -1.
<mgrwt>
<rscale>  0 0.21712941E+01</rscale>
<asrwt>0</asrwt>
<pdfrwt beam="1">0</pdfrwt>
<pdfrwt beam="2">0</pdfrwt>
<totfact> 0.31829870E+12</totfact>
</mgrwt>
</event>
<event>
 4    1  0.1750553E+006  0.2036988E+01  0.7546771E-02  0.2956196E+00
         22   -1    0    0    0    0  0.00000000000E+00  0.00000000000E+00  0.62579746826E-01  0.62579746826E-01  0.00000000000E+00 0. -1.
         22   -1    0    0    0    0 -0.00000000000E+00 -0.00000000000E+00 -0.95819022692E+02  0.95819022692E+02  0.00000000000E+00 0.  1.
          4    1    1    2  501    0 -0.83494451571E+00  0.13562041176E+01 -0.21271158733E+02  0.21368470132E+02  0.12700000000E+01 0. -1.
         -4    1    1    2    0  501  0.83494451571E+00 -0.13562041176E+01 -0.74485284212E+02  0.74513132307E+02  0.12700000000E+01 0.  1.
<mgrwt>
<rscale>  0 0.20369885E+01</rscale>
<asrwt>0</asrwt>
<pdfrwt beam="1">0</pdfrwt>
<pdfrwt beam="2">0</pdfrwt>
<totfact> 0.19311373E+12</totfact>
</mgrwt>
</event>
<event>
 4    1  0.1750553E+006  0.2689854E+01  0.7546771E-02  0.2630319E+00
         22   -1    0    0    0    0  0.00000000000E+00  0.00000000000E+00  0.22008600389E+02  0.22008600389E+02  0.00000000000E+00 0. -1.
         22   -1    0    0    0    0 -0.00000000000E+00 -0.00000000000E+00 -0.50343979396E+00  0.50343979396E+00  0.00000000000E+00 0. -1.
          4    1    1    2  501    0 -0.22165742144E+01 -0.84214665900E+00  0.17383071608E+02  0.17589954257E+02  0.12700000000E+01 0. -1.
         -4    1    1    2    0  501  0.22165742144E+01  0.84214665900E+00  0.41220889873E+01  0.49220859260E+01  0.12700000000E+01 0. -1.
<mgrwt>
<rscale>  0 0.26898536E+01</rscale>
<asrwt>0</asrwt>
<pdfrwt beam="1">0</pdfrwt>
<pdfrwt beam="2">0</pdfrwt>
<totfact> 0.13102035E+12</totfact>
</mgrwt>
</event>
<event>
 4    1  0.1750553E+006  0.4072666E+01  0.7546771E-02  0.2263616E+00
         22   -1    0    0    0    0  0.00000000000E+00  0.00000000000E+00  0.77786384614E+01  0.77786384614E+01  0.00000000000E+00 0. -1.
         22   -1    0    0    0    0 -0.00000000000E+00 -0.00000000000E+00 -0.28945124316E+01  0.28945124316E+01  0.00000000000E+00 0.  1.
          4    1    1    2  501    0 -0.26997780321E+01  0.27721657430E+01  0.51805150411E+01  0.65897147450E+01  0.12700000000E+01 0. -1.
         -4    1    1    2    0  501  0.26997780321E+01 -0.27721657430E+01 -0.29638901131E+00  0.40834361480E+01  0.12700000000E+01 0.  1.
<mgrwt>
<rscale>  0 0.40726655E+01</rscale>
<asrwt>0</asrwt>
<pdfrwt beam="1">0</pdfrwt>
<pdfrwt beam="2">0</pdfrwt>
<totfact> 0.63015006E+11</totfact>
</mgrwt>
</event>
<event>
 4    1  0.1750553E+006  0.4714644E+01  0.7546771E-02  0.2158688E+00
         22   -1    0    0    0    0  0.00000000000E+00  0.00000000000E+00  0.11463776132E+02  0.11463776132E+02  0.00000000000E+00 0.  1.
         22   -1    0    0    0    0 -0.00000000000E+00 -0.00000000000E+00 -0.19409082281E+01  0.19409082281E+01  0.00000000000E+00 0. -1.
          4    1    1    2  501    0  0.25284260402E+01  0.37712111914E+01  0.45494149436E+01  0.65517210273E+01  0.12700000000E+01 0. -1.
         -4    1    1    2    0  501 -0.25284260402E+01 -0.37712111914E+01  0.49734529602E+01  0.68529633326E+01  0.12700000000E+01 0.  1.
<mgrwt>
<rscale>  0 0.47146444E+01</rscale>
<asrwt>0</asrwt>
<pdfrwt beam="1">0</pdfrwt>
<pdfrwt beam="2">0</pdfrwt>
<totfact> 0.62743004E+11</totfact>
</mgrwt>
</event>
<event>
 4    1  0.1750553E+006  0.2108338E+01  0.7546771E-02  0.2911248E+00
         22   -1    0    0    0    0  0.00000000000E+00  0.00000000000E+00  0.45681349090E+01  0.45681349090E+01  0.00000000000E+00 0. -1.
         22   -1    0    0    0    0 -0.00000000000E+00 -0.00000000000E+00 -0.15233563685E+01  0.15233563685E+01  0.00000000000E+00 0.  1.
          4    1    1    2  501    0 -0.14695888398E+01 -0.82005988976E+00  0.33529723802E+01  0.39607465664E+01  0.12700000000E+01 0. -1.
         -4    1    1    2    0  501  0.14695888398E+01  0.82005988976E+00 -0.30819383966E+00  0.21307447111E+01  0.12700000000E+01 0.  1.
<mgrwt>
<rscale>  0 0.21083381E+01</rscale>
<asrwt>0</asrwt>
<pdfrwt beam="1">0</pdfrwt>
<pdfrwt beam="2">0</pdfrwt>
<totfact> 0.24980936E+12</totfact>
</mgrwt>
</event>
<event>
 4    1  0.1750553E+006  0.2561396E+01  0.7546771E-02  0.2682066E+00
         22   -1    0    0    0    0  0.00000000000E+00  0.00000000000E+00  0.39427781994E+00  0.39427781994E+00  0.00000000000E+00 0. -1.
         22   -1    0    0    0    0 -0.00000000000E+00 -0.00000000000E+00 -0.18283205492E+02  0.18283205492E+02  0.00000000000E+00 0. -1.
          4    1    1    2  501    0 -0.18129798270E+01 -0.12887799509E+01 -0.61447135755E+01  0.66571956964E+01  0.12700000000E+01 0. -1.
         -4    1    1    2    0  501  0.18129798270E+01  0.12887799509E+01 -0.11744214096E+02  0.12020287615E+02  0.12700000000E+01 0. -1.
<mgrwt>
<rscale>  0 0.25613960E+01</rscale>
<asrwt>0</asrwt>
<pdfrwt beam="1">0</pdfrwt>
<pdfrwt beam="2">0</pdfrwt>
<totfact> 0.21749451E+12</totfact>
</mgrwt>
</event>
<event>
 4    1  0.1750553E+006  0.2775313E+01  0.7546771E-02  0.2598335E+00
         22   -1    0    0    0    0  0.00000000000E+00  0.00000000000E+00  0.31447318455E+02  0.31447318455E+02  0.00000000000E+00 0.  1.
         22   -1    0    0    0    0 -0.00000000000E+00 -0.00000000000E+00 -0.45361720871E+00  0.45361720871E+00  0.00000000000E+00 0. -1.
          4    1    1    2  501    0  0.19149244695E+01  0.15564473423E+01  0.26315610826E+02  0.26461552056E+02  0.12700000000E+01 0.  1.
         -4    1    1    2    0  501 -0.19149244695E+01 -0.15564473423E+01  0.46780904195E+01  0.54393836072E+01  0.12700000000E+01 0. -1.
<mgrwt>
<rscale>  0 0.27753133E+01</rscale>
<asrwt>0</asrwt>
<pdfrwt beam="1">0</pdfrwt>
<pdfrwt beam="2">0</pdfrwt>
<totfact> 0.93829128E+11</totfact>
</mgrwt>
</event>
<event>
 4    1  0.1750553E+006  0.2628036E+01  0.7546771E-02  0.2654640E+00
         22   -1    0    0    0    0  0.00000000000E+00  0.00000000000E+00  0.30030830669E+01  0.30030830669E+01  0.00000000000E+00 0. -1.
         22   -1    0    0    0    0 -0.00000000000E+00 -0.00000000000E+00 -0.30923100329E+01  0.30923100329E+01  0.00000000000E+00 0.  1.
          4    1    1    2  501    0 -0.19580011510E+01  0.12082654903E+01  0.14982410064E+01  0.30251115873E+01  0.12700000000E+01 0. -1.
         -4    1    1    2    0  501  0.19580011510E+01 -0.12082654903E+01 -0.15874679724E+01  0.30702815125E+01  0.12700000000E+01 0.  1.
<mgrwt>
<rscale>  0 0.26280361E+01</rscale>
<asrwt>0</asrwt>
<pdfrwt beam="1">0</pdfrwt>
<pdfrwt beam="2">0</pdfrwt>
<totfact> 0.17989165E+12</totfact>
</mgrwt>
</event>
<event>
 4    1  0.1750553E+006  0.2316620E+01  0.7546771E-02  0.2795347E+00
         22   -1    0    0    0    0  0.00000000000E+00  0.00000000000E+00  0.75401060037E+02  0.75401060037E+02  0.00000000000E+00 0. -1.
         22   -1    0    0    0    0 -0.00000000000E+00 -0.00000000000E+00 -0.12431068891E+00  0.12431068891E+00  0.00000000000E+00 0. -1.
          4    1    1    2  501    0  0.18180942427E+01  0.66959679812E+00  0.12949644645E+02  0.13155227971E+02  0.12700000000E+01 0. -1.
         -4    1    1    2    0  501 -0.18180942427E+01 -0.66959679812E+00  0.62327104703E+02  0.62370142755E+02  0.12700000000E+01 0. -1.
<mgrwt>
<rscale>  0 0.23166196E+01</rscale>
<asrwt>0</asrwt>
<pdfrwt beam="1">0</pdfrwt>
<pdfrwt beam="2">0</pdfrwt>
<totfact> 0.12596686E+12</totfact>
</mgrwt>
</event>
<event>
 4    1  0.1750553E+006  0.2970265E+01  0.7546771E-02  0.2531661E+00
         22   -1    0    0    0    0  0.00000000000E+00  0.00000000000E+00  0.54603000934E+01  0.54603000934E+01  0.00000000000E+00 0.  1.
         22   -1    0    0    0    0 -0.00000000000E+00 -0.00000000000E+00 -0.17534750984E+01  0.17534750984E+01  0.00000000000E+00 0. -1.
          4    1    1    2  501    0  0.27921372911E+00  0.26705085702E+01  0.84255397614E+00  0.30874542155E+01  0.12700000000E+01 0. -1.
         -4    1    1    2    0  501 -0.27921372911E+00 -0.26705085702E+01  0.28642710189E+01  0.41263209763E+01  0.12700000000E+01 0.  1.
<mgrwt>
<rscale>  0 0.29702654E+01</rscale>
<asrwt>0</asrwt>
<pdfrwt beam="1">0</pdfrwt>
<pdfrwt beam="2">0</pdfrwt>
<totfact> 0.17198468E+12</totfact>
</mgrwt>
</event>
<event>
 4    1  0.1750553E+006  0.2362596E+01  0.7546771E-02  0.2772392E+00
         22   -1    0    0    0    0  0.00000000000E+00  0.00000000000E+00  0.74315880713E+00  0.74315880713E+00  0.00000000000E+00 0. -1.
         22   -1    0    0    0    0 -0.00000000000E+00 -0.00000000000E+00 -0.75360492094E+01  0.75360492094E+01  0.00000000000E+00 0.  1.
          4    1    1    2  501    0 -0.19357707261E+01  0.47090275450E+00 -0.31577309634E+01  0.39437447363E+01  0.12700000000E+01 0. -1.
         -4    1    1    2    0  501  0.19357707261E+01 -0.47090275450E+00 -0.36351594389E+01  0.43354632802E+01  0.12700000000E+01 0.  1.
<mgrwt>
<rscale>  0 0.23625955E+01</rscale>
<asrwt>0</asrwt>
<pdfrwt beam="1">0</pdfrwt>
<pdfrwt beam="2">0</pdfrwt>
<totfact> 0.31288240E+12</totfact>
</mgrwt>
</event>
<event>
 4    1  0.1750553E+006  0.2468703E+01  0.7546771E-02  0.2722491E+00
         22   -1    0    0    0    0  0.00000000000E+00  0.00000000000E+00  0.15545849821E+00  0.15545849821E+00  0.00000000000E+00 0.  1.
         22   -1    0    0    0    0 -0.00000000000E+00 -0.00000000000E+00 -0.68879366653E+02  0.68879366653E+02  0.00000000000E+00 0. -1.
          4    1    1    2  501    0 -0.16676929371E+01  0.13039918824E+01 -0.11705265581E+02  0.11962764600E+02  0.12700000000E+01 0.  1.
         -4    1    1    2    0  501  0.16676929371E+01 -0.13039918824E+01 -0.57018642574E+02  0.57072060551E+02  0.12700000000E+01 0. -1.
<mgrwt>
<rscale>  0 0.24687030E+01</rscale>
<asrwt>0</asrwt>
<pdfrwt beam="1">0</pdfrwt>
<pdfrwt beam="2">0</pdfrwt>
<totfact> 0.11113289E+12</totfact>
</mgrwt>
</event>
<event>
 4    1  0.1750553E+006  0.2886972E+01  0.7546771E-02  0.2559151E+00
         22   -1    0    0    0    0  0.00000000000E+00  0.00000000000E+00  0.58154495890E+01  0.58154495890E+01  0.00000000000E+00 0.  1.
         22   -1    0    0    0    0 -0.00000000000E+00 -0.00000000000E+00 -0.16313830504E+01  0.16313830504E+01  0.00000000000E+00 0.  1.
          4    1    1    2  501    0 -0.84119728935E+00  0.24523650079E+01  0.33898544018E+01  0.44526082106E+01  0.12700000000E+01 0.  1.
         -4    1    1    2    0  501  0.84119728935E+00 -0.24523650079E+01  0.79421213677E+00  0.29942244287E+01  0.12700000000E+01 0.  1.
<mgrwt>
<rscale>  0 0.28869719E+01</rscale>
<asrwt>0</asrwt>
<pdfrwt beam="1">0</pdfrwt>
<pdfrwt beam="2">0</pdfrwt>
<totfact> 0.17343040E+12</totfact>
</mgrwt>
</event>
<event>
 4    1  0.1750553E+006  0.2260452E+01  0.7546771E-02  0.2824590E+00
         22   -1    0    0    0    0  0.00000000000E+00  0.00000000000E+00  0.41965339432E+01  0.41965339432E+01  0.00000000000E+00 0.  1.
         22   -1    0    0    0    0 -0.00000000000E+00 -0.00000000000E+00 -0.15383533273E+01  0.15383533273E+01  0.00000000000E+00 0. -1.
          4    1    1    2  501    0 -0.18080529028E+01 -0.47716555906E+00  0.26384582285E+01  0.34743494490E+01  0.12700000000E+01 0.  1.
         -4    1    1    2    0  501  0.18080529028E+01  0.47716555906E+00  0.19722387360E-01  0.22605378215E+01  0.12700000000E+01 0. -1.
<mgrwt>
<rscale>  0 0.22604518E+01</rscale>
<asrwt>0</asrwt>
<pdfrwt beam="1">0</pdfrwt>
<pdfrwt beam="2">0</pdfrwt>
<totfact> 0.27301864E+12</totfact>
</mgrwt>
</event>
<event>
 4    1  0.1750553E+006  0.2020789E+01  0.7546771E-02  0.2966833E+00
         22   -1    0    0    0    0  0.00000000000E+00  0.00000000000E+00  0.17180171506E+02  0.17180171506E+02  0.00000000000E+00 0. -1.
         22   -1    0    0    0    0 -0.00000000000E+00 -0.00000000000E+00 -0.36874267350E+00  0.36874267350E+00  0.00000000000E+00 0.  1.
          4    1    1    2  501    0  0.11039470309E+01 -0.11189224932E+01  0.13636638855E+02  0.13785554245E+02  0.12700000000E+01 0. -1.
         -4    1    1    2    0  501 -0.11039470309E+01  0.11189224932E+01  0.31747899782E+01  0.37633599347E+01  0.12700000000E+01 0.  1.
<mgrwt>
<rscale>  0 0.20207886E+01</rscale>
<asrwt>0</asrwt>
<pdfrwt beam="1">0</pdfrwt>
<pdfrwt beam="2">0</pdfrwt>
<totfact> 0.25329155E+12</totfact>
</mgrwt>
</event>
<event>
 4    1  0.1750553E+006  0.2063407E+01  0.7546771E-02  0.2939201E+00
         22   -1    0    0    0    0  0.00000000000E+00  0.00000000000E+00  0.15493035712E+01  0.15493035712E+01  0.00000000000E+00 0.  1.
         22   -1    0    0    0    0 -0.00000000000E+00 -0.00000000000E+00 -0.28277048989E+01  0.28277048989E+01  0.00000000000E+00 0.  1.
          4    1    1    2  501    0  0.33842153605E+00  0.15906660745E+01 -0.27201246951E+00  0.20812588691E+01  0.12700000000E+01 0.  1.
         -4    1    1    2    0  501 -0.33842153605E+00 -0.15906660745E+01 -0.10063888582E+01  0.22957496010E+01  0.12700000000E+01 0.  1.
<mgrwt>
<rscale>  0 0.20634068E+01</rscale>
<asrwt>0</asrwt>
<pdfrwt beam="1">0</pdfrwt>
<pdfrwt beam="2">0</pdfrwt>
<totfact> 0.43014936E+12</totfact>
</mgrwt>
</event>
<event>
 4    1  0.1750553E+006  0.2495007E+01  0.7546771E-02  0.2710735E+00
         22   -1    0    0    0    0  0.00000000000E+00  0.00000000000E+00  0.40299905804E+00  0.40299905804E+00  0.00000000000E+00 0.  1.
         22   -1    0    0    0    0 -0.00000000000E+00 -0.00000000000E+00 -0.18587321022E+02  0.18587321022E+02  0.00000000000E+00 0. -1.
          4    1    1    2  501    0 -0.20669267970E+01  0.58307315749E+00 -0.51892181028E+01  0.57578681132E+01  0.12700000000E+01 0.  1.
         -4    1    1    2    0  501  0.20669267970E+01 -0.58307315749E+00 -0.12995103862E+02  0.13232451967E+02  0.12700000000E+01 0. -1.
<mgrwt>
<rscale>  0 0.24950072E+01</rscale>
<asrwt>0</asrwt>
<pdfrwt beam="1">0</pdfrwt>
<pdfrwt beam="2">0</pdfrwt>
<totfact> 0.20789891E+12</totfact>
</mgrwt>
</event>
<event>
 4    1  0.1750553E+006  0.2077326E+01  0.7546771E-02  0.2930416E+00
         22   -1    0    0    0    0  0.00000000000E+00  0.00000000000E+00  0.31637051797E+01  0.31637051797E+01  0.00000000000E+00 0.  1.
         22   -1    0    0    0    0 -0.00000000000E+00 -0.00000000000E+00 -0.22798985912E+01  0.22798985912E+01  0.00000000000E+00 0.  1.
          4    1    1    2  501    0  0.14663319173E+01 -0.74313674133E+00  0.21670394092E+01  0.30018896230E+01  0.12700000000E+01 0.  1.
         -4    1    1    2    0  501 -0.14663319173E+01  0.74313674133E+00 -0.12832328206E+01  0.24417141479E+01  0.12700000000E+01 0.  1.
<mgrwt>
<rscale>  0 0.20773256E+01</rscale>
<asrwt>0</asrwt>
<pdfrwt beam="1">0</pdfrwt>
<pdfrwt beam="2">0</pdfrwt>
<totfact> 0.24138625E+12</totfact>
</mgrwt>
</event>
<event>
 4    1  0.1750553E+006  0.2385578E+01  0.7546771E-02  0.2761230E+00
         22   -1    0    0    0    0  0.00000000000E+00  0.00000000000E+00  0.48099732037E+01  0.48099732037E+01  0.00000000000E+00 0.  1.
         22   -1    0    0    0    0 -0.00000000000E+00 -0.00000000000E+00 -0.17398134999E+01  0.17398134999E+01  0.00000000000E+00 0.  1.
          4    1    1    2  501    0 -0.16057388874E+01 -0.12246163762E+01  0.33874897347E+01  0.41431955477E+01  0.12700000000E+01 0.  1.
         -4    1    1    2    0  501  0.16057388874E+01  0.12246163762E+01 -0.31733003092E+00  0.24065911559E+01  0.12700000000E+01 0.  1.
<mgrwt>
<rscale>  0 0.23855781E+01</rscale>
<asrwt>0</asrwt>
<pdfrwt beam="1">0</pdfrwt>
<pdfrwt beam="2">0</pdfrwt>
<totfact> 0.20167450E+12</totfact>
</mgrwt>
</event>
<event>
 4    1  0.1750553E+006  0.2137144E+01  0.7546771E-02  0.2893927E+00
         22   -1    0    0    0    0  0.00000000000E+00  0.00000000000E+00  0.18923139464E+00  0.18923139464E+00  0.00000000000E+00 0.  1.
         22   -1    0    0    0    0 -0.00000000000E+00 -0.00000000000E+00 -0.33109435661E+02  0.33109435661E+02  0.00000000000E+00 0. -1.
          4    1    1    2  501    0 -0.15021024956E+01 -0.83556787800E+00 -0.77927192593E+01  0.80804615611E+01  0.12700000000E+01 0.  1.
         -4    1    1    2    0  501  0.15021024956E+01  0.83556787800E+00 -0.25127485007E+02  0.25218205494E+02  0.12700000000E+01 0. -1.
<mgrwt>
<rscale>  0 0.21371443E+01</rscale>
<asrwt>0</asrwt>
<pdfrwt beam="1">0</pdfrwt>
<pdfrwt beam="2">0</pdfrwt>
<totfact> 0.23405166E+12</totfact>
</mgrwt>
</event>
<event>
 4    1  0.1750553E+006  0.2038181E+01  0.7546771E-02  0.2955420E+00
         22   -1    0    0    0    0  0.00000000000E+00  0.00000000000E+00  0.75938617089E+01  0.75938617089E+01  0.00000000000E+00 0.  1.
         22   -1    0    0    0    0 -0.00000000000E+00 -0.00000000000E+00 -0.54895396779E+00  0.54895396779E+00  0.00000000000E+00 0.  1.
          4    1    1    2  501    0  0.14116195216E+01 -0.74068422557E+00  0.32823522123E+01  0.38636794434E+01  0.12700000000E+01 0.  1.
         -4    1    1    2    0  501 -0.14116195216E+01  0.74068422557E+00  0.37625555288E+01  0.42791362332E+01  0.12700000000E+01 0.  1.
<mgrwt>
<rscale>  0 0.20381812E+01</rscale>
<asrwt>0</asrwt>
<pdfrwt beam="1">0</pdfrwt>
<pdfrwt beam="2">0</pdfrwt>
<totfact> 0.43699482E+12</totfact>
</mgrwt>
</event>
<event>
 4    1  0.1750553E+006  0.2003322E+01  0.7546771E-02  0.2978489E+00
         22   -1    0    0    0    0  0.00000000000E+00  0.00000000000E+00  0.96011701832E+00  0.96011701832E+00  0.00000000000E+00 0.  1.
         22   -1    0    0    0    0 -0.00000000000E+00 -0.00000000000E+00 -0.55046203568E+01  0.55046203568E+01  0.00000000000E+00 0.  1.
          4    1    1    2  501    0 -0.15305228799E+01  0.24062149797E+00 -0.68662392927E+00  0.21177231668E+01  0.12700000000E+01 0.  1.
         -4    1    1    2    0  501  0.15305228799E+01 -0.24062149797E+00 -0.38578794092E+01  0.43470142083E+01  0.12700000000E+01 0.  1.
<mgrwt>
<rscale>  0 0.20033220E+01</rscale>
<asrwt>0</asrwt>
<pdfrwt beam="1">0</pdfrwt>
<pdfrwt beam="2">0</pdfrwt>
<totfact> 0.33996287E+12</totfact>
</mgrwt>
</event>
<event>
 4    1  0.1750553E+006  0.2455507E+01  0.7546771E-02  0.2728477E+00
         22   -1    0    0    0    0  0.00000000000E+00  0.00000000000E+00  0.39803163055E+00  0.39803163055E+00  0.00000000000E+00 0. -1.
         22   -1    0    0    0    0 -0.00000000000E+00 -0.00000000000E+00 -0.15491339441E+02  0.15491339441E+02  0.00000000000E+00 0.  1.
          4    1    1    2  501    0 -0.17560487285E+00 -0.20942244295E+01 -0.63644630875E+01  0.68217229074E+01  0.12700000000E+01 0. -1.
         -4    1    1    2    0  501  0.17560487285E+00  0.20942244295E+01 -0.87288447229E+01  0.90676481641E+01  0.12700000000E+01 0.  1.
<mgrwt>
<rscale>  0 0.24555067E+01</rscale>
<asrwt>0</asrwt>
<pdfrwt beam="1">0</pdfrwt>
<pdfrwt beam="2">0</pdfrwt>
<totfact> 0.26413509E+12</totfact>
</mgrwt>
</event>
<event>
 4    1  0.1750553E+006  0.2046543E+01  0.7546771E-02  0.2950001E+00
         22   -1    0    0    0    0  0.00000000000E+00  0.00000000000E+00  0.75466694914E+00  0.75466694914E+00  0.00000000000E+00 0. -1.
         22   -1    0    0    0    0 -0.00000000000E+00 -0.00000000000E+00 -0.55654848099E+01  0.55654848099E+01  0.00000000000E+00 0.  1.
          4    1    1    2  501    0 -0.79944932557E+00  0.13915162176E+01 -0.22382603498E+01  0.30328445396E+01  0.12700000000E+01 0. -1.
         -4    1    1    2    0  501  0.79944932557E+00 -0.13915162176E+01 -0.25725575109E+01  0.32873072194E+01  0.12700000000E+01 0.  1.
<mgrwt>
<rscale>  0 0.20465426E+01</rscale>
<asrwt>0</asrwt>
<pdfrwt beam="1">0</pdfrwt>
<pdfrwt beam="2">0</pdfrwt>
<totfact> 0.44141835E+12</totfact>
</mgrwt>
</event>
<event>
 4    1  0.1750553E+006  0.2373664E+01  0.7546771E-02  0.2766991E+00
         22   -1    0    0    0    0  0.00000000000E+00  0.00000000000E+00  0.84472778445E+00  0.84472778445E+00  0.00000000000E+00 0.  1.
         22   -1    0    0    0    0 -0.00000000000E+00 -0.00000000000E+00 -0.10673022568E+02  0.10673022568E+02  0.00000000000E+00 0. -1.
          4    1    1    2  501    0  0.46394242923E+00  0.19509324940E+01 -0.13872611824E+01  0.27493224187E+01  0.12700000000E+01 0.  1.
         -4    1    1    2    0  501 -0.46394242923E+00 -0.19509324940E+01 -0.84410336013E+01  0.87684279339E+01  0.12700000000E+01 0. -1.
<mgrwt>
<rscale>  0 0.23736639E+01</rscale>
<asrwt>0</asrwt>
<pdfrwt beam="1">0</pdfrwt>
<pdfrwt beam="2">0</pdfrwt>
<totfact> 0.17773920E+12</totfact>
</mgrwt>
</event>
<event>
 4    1  0.1750553E+006  0.2365235E+01  0.7546771E-02  0.2771100E+00
         22   -1    0    0    0    0  0.00000000000E+00  0.00000000000E+00  0.60204390251E+01  0.60204390251E+01  0.00000000000E+00 0.  1.
         22   -1    0    0    0    0 -0.00000000000E+00 -0.00000000000E+00 -0.97898447766E+00  0.97898447766E+00  0.00000000000E+00 0. -1.
          4    1    1    2  501    0 -0.24232161505E+00  0.19805844121E+01  0.33097474922E+01  0.40680170649E+01  0.12700000000E+01 0.  1.
         -4    1    1    2    0  501  0.24232161505E+00 -0.19805844121E+01  0.17317070552E+01  0.29314064378E+01  0.12700000000E+01 0. -1.
<mgrwt>
<rscale>  0 0.23652345E+01</rscale>
<asrwt>0</asrwt>
<pdfrwt beam="1">0</pdfrwt>
<pdfrwt beam="2">0</pdfrwt>
<totfact> 0.29893116E+12</totfact>
</mgrwt>
</event>
<event>
 4    1  0.1750553E+006  0.2230191E+01  0.7546771E-02  0.2840927E+00
         22   -1    0    0    0    0  0.00000000000E+00  0.00000000000E+00  0.16167323941E+00  0.16167323941E+00  0.00000000000E+00 0.  1.
         22   -1    0    0    0    0 -0.00000000000E+00 -0.00000000000E+00 -0.30916891454E+02  0.30916891454E+02  0.00000000000E+00 0. -1.
          4    1    1    2  501    0  0.26330856621E-01 -0.18330732386E+01 -0.14285629449E+02  0.14458663823E+02  0.12700000000E+01 0.  1.
         -4    1    1    2    0  501 -0.26330856621E-01  0.18330732386E+01 -0.16469588766E+02  0.16619900870E+02  0.12700000000E+01 0. -1.
<mgrwt>
<rscale>  0 0.22301908E+01</rscale>
<asrwt>0</asrwt>
<pdfrwt beam="1">0</pdfrwt>
<pdfrwt beam="2">0</pdfrwt>
<totfact> 0.30445554E+12</totfact>
</mgrwt>
</event>
<event>
 4    1  0.1750553E+006  0.2432373E+01  0.7546771E-02  0.2739117E+00
         22   -1    0    0    0    0  0.00000000000E+00  0.00000000000E+00  0.49265593209E+01  0.49265593209E+01  0.00000000000E+00 0.  1.
         22   -1    0    0    0    0 -0.00000000000E+00 -0.00000000000E+00 -0.12411041932E+01  0.12411041932E+01  0.00000000000E+00 0. -1.
          4    1    1    2  501    0  0.16715512668E+01 -0.12285978854E+01  0.12878742029E+01  0.27522820285E+01  0.12700000000E+01 0. -1.
         -4    1    1    2    0  501 -0.16715512668E+01  0.12285978854E+01  0.23975809248E+01  0.34153814857E+01  0.12700000000E+01 0.  1.
<mgrwt>
<rscale>  0 0.24323726E+01</rscale>
<asrwt>0</asrwt>
<pdfrwt beam="1">0</pdfrwt>
<pdfrwt beam="2">0</pdfrwt>
<totfact> 0.28911795E+12</totfact>
</mgrwt>
</event>
<event>
 4    1  0.1750553E+006  0.2075023E+01  0.7546771E-02  0.2931862E+00
         22   -1    0    0    0    0  0.00000000000E+00  0.00000000000E+00  0.10443090807E+01  0.10443090807E+01  0.00000000000E+00 0.  1.
         22   -1    0    0    0    0 -0.00000000000E+00 -0.00000000000E+00 -0.51730203608E+01  0.51730203608E+01  0.00000000000E+00 0. -1.
          4    1    1    2  501    0 -0.84505111561E+00 -0.14066658500E+01 -0.66382070889E+00  0.21786184005E+01  0.12700000000E+01 0.  1.
         -4    1    1    2    0  501  0.84505111561E+00  0.14066658500E+01 -0.34648905712E+01  0.40387110409E+01  0.12700000000E+01 0. -1.
<mgrwt>
<rscale>  0 0.20750229E+01</rscale>
<asrwt>0</asrwt>
<pdfrwt beam="1">0</pdfrwt>
<pdfrwt beam="2">0</pdfrwt>
<totfact> 0.33247772E+12</totfact>
</mgrwt>
</event>
<event>
 4    1  0.1750553E+006  0.2200361E+01  0.7546771E-02  0.2857450E+00
         22   -1    0    0    0    0  0.00000000000E+00  0.00000000000E+00  0.36829310112E+01  0.36829310112E+01  0.00000000000E+00 0.  1.
         22   -1    0    0    0    0 -0.00000000000E+00 -0.00000000000E+00 -0.38310635066E+01  0.38310635066E+01  0.00000000000E+00 0. -1.
          4    1    1    2  501    0  0.12529634563E+01 -0.12879330734E+01  0.29708568979E+01  0.36969689926E+01  0.12700000000E+01 0.  1.
         -4    1    1    2    0  501 -0.12529634563E+01  0.12879330734E+01 -0.31189893933E+01  0.38170255252E+01  0.12700000000E+01 0. -1.
<mgrwt>
<rscale>  0 0.22003611E+01</rscale>
<asrwt>0</asrwt>
<pdfrwt beam="1">0</pdfrwt>
<pdfrwt beam="2">0</pdfrwt>
<totfact> 0.11018855E+12</totfact>
</mgrwt>
</event>
<event>
 4    1  0.1750553E+006  0.2393381E+01  0.7546771E-02  0.2757487E+00
         22   -1    0    0    0    0  0.00000000000E+00  0.00000000000E+00  0.37138574164E+01  0.37138574164E+01  0.00000000000E+00 0. -1.
         22   -1    0    0    0    0 -0.00000000000E+00 -0.00000000000E+00 -0.17903369013E+01  0.17903369013E+01  0.00000000000E+00 0.  1.
          4    1    1    2  501    0 -0.79113886524E+00  0.18680124518E+01 -0.62387992562E-01  0.23941937027E+01  0.12700000000E+01 0. -1.
         -4    1    1    2    0  501  0.79113886524E+00 -0.18680124518E+01  0.19859085077E+01  0.31100006150E+01  0.12700000000E+01 0.  1.
<mgrwt>
<rscale>  0 0.23933807E+01</rscale>
<asrwt>0</asrwt>
<pdfrwt beam="1">0</pdfrwt>
<pdfrwt beam="2">0</pdfrwt>
<totfact> 0.26464722E+12</totfact>
</mgrwt>
</event>
<event>
 4    1  0.1750553E+006  0.2586400E+01  0.7546771E-02  0.2671622E+00
         22   -1    0    0    0    0  0.00000000000E+00  0.00000000000E+00  0.98752768231E+00  0.98752768231E+00  0.00000000000E+00 0.  1.
         22   -1    0    0    0    0 -0.00000000000E+00 -0.00000000000E+00 -0.22727713204E+02  0.22727713204E+02  0.00000000000E+00 0.  1.
          4    1    1    2  501    0 -0.10477538238E+01 -0.19946874482E+01 -0.93547402638E+00  0.27503777459E+01  0.12700000000E+01 0.  1.
         -4    1    1    2    0  501  0.10477538238E+01  0.19946874482E+01 -0.20804711496E+02  0.20964863141E+02  0.12700000000E+01 0.  1.
<mgrwt>
<rscale>  0 0.25864002E+01</rscale>
<asrwt>0</asrwt>
<pdfrwt beam="1">0</pdfrwt>
<pdfrwt beam="2">0</pdfrwt>
<totfact> 0.58562951E+11</totfact>
</mgrwt>
</event>
<event>
 4    1  0.1750553E+006  0.3740837E+01  0.7546771E-02  0.2329752E+00
         22   -1    0    0    0    0  0.00000000000E+00  0.00000000000E+00  0.73981187399E+01  0.73981187399E+01  0.00000000000E+00 0.  1.
         22   -1    0    0    0    0 -0.00000000000E+00 -0.00000000000E+00 -0.29903039946E+01  0.29903039946E+01  0.00000000000E+00 0. -1.
          4    1    1    2  501    0 -0.34574214987E+01  0.65360215770E+00  0.53524790068E+01  0.65301524269E+01  0.12700000000E+01 0.  1.
         -4    1    1    2    0  501  0.34574214987E+01 -0.65360215770E+00 -0.94466426140E+00  0.38582703077E+01  0.12700000000E+01 0. -1.
<mgrwt>
<rscale>  0 0.37408367E+01</rscale>
<asrwt>0</asrwt>
<pdfrwt beam="1">0</pdfrwt>
<pdfrwt beam="2">0</pdfrwt>
<totfact> 0.64425307E+11</totfact>
</mgrwt>
</event>
<event>
 4    1  0.1750553E+006  0.5042168E+01  0.7546771E-02  0.2118004E+00
         22   -1    0    0    0    0  0.00000000000E+00  0.00000000000E+00  0.15301972597E+02  0.15301972597E+02  0.00000000000E+00 0. -1.
         22   -1    0    0    0    0 -0.00000000000E+00 -0.00000000000E+00 -0.16640969919E+01  0.16640969919E+01  0.00000000000E+00 0.  1.
          4    1    1    2  501    0 -0.39621448175E+01 -0.28481506801E+01  0.71573016116E+01  0.87550225705E+01  0.12700000000E+01 0. -1.
         -4    1    1    2    0  501  0.39621448175E+01  0.28481506801E+01  0.64805739932E+01  0.82110470180E+01  0.12700000000E+01 0.  1.
<mgrwt>
<rscale>  0 0.50421676E+01</rscale>
<asrwt>0</asrwt>
<pdfrwt beam="1">0</pdfrwt>
<pdfrwt beam="2">0</pdfrwt>
<totfact> 0.52625268E+11</totfact>
</mgrwt>
</event>
<event>
 4    1  0.1750553E+006  0.2700424E+01  0.7546771E-02  0.2626263E+00
         22   -1    0    0    0    0  0.00000000000E+00  0.00000000000E+00  0.82201177289E+00  0.82201177289E+00  0.00000000000E+00 0. -1.
         22   -1    0    0    0    0 -0.00000000000E+00 -0.00000000000E+00 -0.90721652641E+01  0.90721652641E+01  0.00000000000E+00 0. -1.
          4    1    1    2  501    0  0.23292155164E+01  0.50412866117E+00 -0.33889101659E+01  0.43332439051E+01  0.12700000000E+01 0. -1.
         -4    1    1    2    0  501 -0.23292155164E+01 -0.50412866117E+00 -0.48612433253E+01  0.55609331319E+01  0.12700000000E+01 0. -1.
<mgrwt>
<rscale>  0 0.27004242E+01</rscale>
<asrwt>0</asrwt>
<pdfrwt beam="1">0</pdfrwt>
<pdfrwt beam="2">0</pdfrwt>
<totfact> 0.22319422E+12</totfact>
</mgrwt>
</event>
<event>
 4    1  0.1750553E+006  0.3593012E+01  0.7546771E-02  0.2362570E+00
         22   -1    0    0    0    0  0.00000000000E+00  0.00000000000E+00  0.23489278342E+01  0.23489278342E+01  0.00000000000E+00 0.  1.
         22   -1    0    0    0    0 -0.00000000000E+00 -0.00000000000E+00 -0.54998624541E+01  0.54998624541E+01  0.00000000000E+00 0. -1.
          4    1    1    2  501    0  0.33538573337E+01 -0.22016705864E+00 -0.16793217743E+01  0.39660880184E+01  0.12700000000E+01 0. -1.
         -4    1    1    2    0  501 -0.33538573337E+01  0.22016705864E+00 -0.14716128456E+01  0.38827022698E+01  0.12700000000E+01 0.  1.
<mgrwt>
<rscale>  0 0.35930116E+01</rscale>
<asrwt>0</asrwt>
<pdfrwt beam="1">0</pdfrwt>
<pdfrwt beam="2">0</pdfrwt>
<totfact> 0.12155117E+12</totfact>
</mgrwt>
</event>
<event>
 4    1  0.1750553E+006  0.2149791E+01  0.7546771E-02  0.2886465E+00
         22   -1    0    0    0    0  0.00000000000E+00  0.00000000000E+00  0.18217712510E+01  0.18217712510E+01  0.00000000000E+00 0. -1.
         22   -1    0    0    0    0 -0.00000000000E+00 -0.00000000000E+00 -0.25526957905E+01  0.25526957905E+01  0.00000000000E+00 0. -1.
          4    1    1    2  501    0  0.11915128816E+01  0.12605542195E+01 -0.53767106466E+00  0.22160076852E+01  0.12700000000E+01 0. -1.
         -4    1    1    2    0  501 -0.11915128816E+01 -0.12605542195E+01 -0.19325347481E+00  0.21584593563E+01  0.12700000000E+01 0. -1.
<mgrwt>
<rscale>  0 0.21497907E+01</rscale>
<asrwt>0</asrwt>
<pdfrwt beam="1">0</pdfrwt>
<pdfrwt beam="2">0</pdfrwt>
<totfact> 0.40203325E+12</totfact>
</mgrwt>
</event>
<event>
 4    1  0.1750553E+006  0.2216388E+01  0.7546771E-02  0.2848519E+00
         22   -1    0    0    0    0  0.00000000000E+00  0.00000000000E+00  0.84108270882E+01  0.84108270882E+01  0.00000000000E+00 0.  1.
         22   -1    0    0    0    0 -0.00000000000E+00 -0.00000000000E+00 -0.60642582880E+00  0.60642582880E+00  0.00000000000E+00 0. -1.
          4    1    1    2  501    0  0.15003499413E+01 -0.10239263689E+01  0.47681819385E+01  0.52581302907E+01  0.12700000000E+01 0.  1.
         -4    1    1    2    0  501 -0.15003499413E+01  0.10239263689E+01  0.30362193210E+01  0.37591226264E+01  0.12700000000E+01 0. -1.
<mgrwt>
<rscale>  0 0.22163879E+01</rscale>
<asrwt>0</asrwt>
<pdfrwt beam="1">0</pdfrwt>
<pdfrwt beam="2">0</pdfrwt>
<totfact> 0.34534054E+12</totfact>
</mgrwt>
</event>
<event>
 4    1  0.1750553E+006  0.2905568E+01  0.7546771E-02  0.2552891E+00
         22   -1    0    0    0    0  0.00000000000E+00  0.00000000000E+00  0.10660748089E+01  0.10660748089E+01  0.00000000000E+00 0.  1.
         22   -1    0    0    0    0 -0.00000000000E+00 -0.00000000000E+00 -0.97444870079E+01  0.97444870079E+01  0.00000000000E+00 0. -1.
          4    1    1    2  501    0  0.23096389930E+01  0.12226982912E+01 -0.66786873137E+01  0.72833500276E+01  0.12700000000E+01 0.  1.
         -4    1    1    2    0  501 -0.23096389930E+01 -0.12226982912E+01 -0.19997248853E+01  0.35272117892E+01  0.12700000000E+01 0. -1.
<mgrwt>
<rscale>  0 0.29055677E+01</rscale>
<asrwt>0</asrwt>
<pdfrwt beam="1">0</pdfrwt>
<pdfrwt beam="2">0</pdfrwt>
<totfact> 0.15218889E+12</totfact>
</mgrwt>
</event>
<event>
 4    1  0.1750553E+006  0.2382736E+01  0.7546771E-02  0.2762599E+00
         22   -1    0    0    0    0  0.00000000000E+00  0.00000000000E+00  0.52989004701E+01  0.52989004701E+01  0.00000000000E+00 0.  1.
         22   -1    0    0    0    0 -0.00000000000E+00 -0.00000000000E+00 -0.13324850781E+01  0.13324850781E+01  0.00000000000E+00 0. -1.
          4    1    1    2  501    0  0.14222086453E+01  0.14289343809E+01  0.34507967863E+01  0.41934984626E+01  0.12700000000E+01 0.  1.
         -4    1    1    2    0  501 -0.14222086453E+01 -0.14289343809E+01  0.51561860564E+00  0.24378870856E+01  0.12700000000E+01 0. -1.
<mgrwt>
<rscale>  0 0.23827360E+01</rscale>
<asrwt>0</asrwt>
<pdfrwt beam="1">0</pdfrwt>
<pdfrwt beam="2">0</pdfrwt>
<totfact> 0.24444933E+12</totfact>
</mgrwt>
</event>
<event>
 4    1  0.1750553E+006  0.2673147E+01  0.7546771E-02  0.2636790E+00
         22   -1    0    0    0    0  0.00000000000E+00  0.00000000000E+00  0.14109972800E+00  0.14109972800E+00  0.00000000000E+00 0.  1.
         22   -1    0    0    0    0 -0.00000000000E+00 -0.00000000000E+00 -0.66934027970E+02  0.66934027970E+02  0.00000000000E+00 0.  1.
          4    1    1    2  501    0 -0.15715388454E+01 -0.17501661360E+01 -0.16850881774E+02  0.17061592317E+02  0.12700000000E+01 0.  1.
         -4    1    1    2    0  501  0.15715388454E+01  0.17501661360E+01 -0.49942046469E+02  0.50013535381E+02  0.12700000000E+01 0.  1.
<mgrwt>
<rscale>  0 0.26731472E+01</rscale>
<asrwt>0</asrwt>
<pdfrwt beam="1">0</pdfrwt>
<pdfrwt beam="2">0</pdfrwt>
<totfact> 0.12866901E+12</totfact>
</mgrwt>
</event>
<event>
 4    1  0.1750553E+006  0.2944068E+01  0.7546771E-02  0.2540156E+00
         22   -1    0    0    0    0  0.00000000000E+00  0.00000000000E+00  0.14504511119E+02  0.14504511119E+02  0.00000000000E+00 0. -1.
         22   -1    0    0    0    0 -0.00000000000E+00 -0.00000000000E+00 -0.66257793853E+00  0.66257793853E+00  0.00000000000E+00 0.  1.
          4    1    1    2  501    0  0.55178555415E+00  0.25981088167E+01  0.92962719397E+01  0.97513183056E+01  0.12700000000E+01 0. -1.
         -4    1    1    2    0  501 -0.55178555415E+00 -0.25981088167E+01  0.45456612406E+01  0.54157707518E+01  0.12700000000E+01 0.  1.
<mgrwt>
<rscale>  0 0.29440681E+01</rscale>
<asrwt>0</asrwt>
<pdfrwt beam="1">0</pdfrwt>
<pdfrwt beam="2">0</pdfrwt>
<totfact> 0.16105777E+12</totfact>
</mgrwt>
</event>
<event>
 4    1  0.1750553E+006  0.2918340E+01  0.7546771E-02  0.2548632E+00
         22   -1    0    0    0    0  0.00000000000E+00  0.00000000000E+00  0.49020341479E+01  0.49020341479E+01  0.00000000000E+00 0. -1.
         22   -1    0    0    0    0 -0.00000000000E+00 -0.00000000000E+00 -0.17553953384E+01  0.17553953384E+01  0.00000000000E+00 0.  1.
          4    1    1    2  501    0 -0.19178131039E+01 -0.17960520536E+01  0.19105103558E+01  0.34880882874E+01  0.12700000000E+01 0. -1.
         -4    1    1    2    0  501  0.19178131039E+01  0.17960520536E+01  0.12361284537E+01  0.31693411989E+01  0.12700000000E+01 0.  1.
<mgrwt>
<rscale>  0 0.29183403E+01</rscale>
<asrwt>0</asrwt>
<pdfrwt beam="1">0</pdfrwt>
<pdfrwt beam="2">0</pdfrwt>
<totfact> 0.19518845E+12</totfact>
</mgrwt>
</event>
<event>
 4    1  0.1750553E+006  0.2087172E+01  0.7546771E-02  0.2924271E+00
         22   -1    0    0    0    0  0.00000000000E+00  0.00000000000E+00  0.83310268818E+01  0.83310268818E+01  0.00000000000E+00 0. -1.
         22   -1    0    0    0    0 -0.00000000000E+00 -0.00000000000E+00 -0.74845965123E+00  0.74845965123E+00  0.00000000000E+00 0.  1.
          4    1    1    2  501    0  0.68953563491E+00 -0.15059641699E+01  0.62834587186E+01  0.66210377541E+01  0.12700000000E+01 0. -1.
         -4    1    1    2    0  501 -0.68953563491E+00  0.15059641699E+01  0.12991085120E+01  0.24584487790E+01  0.12700000000E+01 0.  1.
<mgrwt>
<rscale>  0 0.20871721E+01</rscale>
<asrwt>0</asrwt>
<pdfrwt beam="1">0</pdfrwt>
<pdfrwt beam="2">0</pdfrwt>
<totfact> 0.27513070E+12</totfact>
</mgrwt>
</event>
<event>
 4    1  0.1750553E+006  0.2165770E+01  0.7546771E-02  0.2877155E+00
         22   -1    0    0    0    0  0.00000000000E+00  0.00000000000E+00  0.12961011534E+00  0.12961011534E+00  0.00000000000E+00 0.  1.
         22   -1    0    0    0    0 -0.00000000000E+00 -0.00000000000E+00 -0.48003732657E+02  0.48003732657E+02  0.00000000000E+00 0.  1.
          4    1    1    2  501    0 -0.74230236230E+00 -0.15895436266E+01 -0.11997836960E+02  0.12191745300E+02  0.12700000000E+01 0.  1.
         -4    1    1    2    0  501  0.74230236230E+00  0.15895436266E+01 -0.35876285581E+02  0.35941597472E+02  0.12700000000E+01 0.  1.
<mgrwt>
<rscale>  0 0.21657705E+01</rscale>
<asrwt>0</asrwt>
<pdfrwt beam="1">0</pdfrwt>
<pdfrwt beam="2">0</pdfrwt>
<totfact> 0.22017587E+12</totfact>
</mgrwt>
</event>
<event>
 4    1  0.1750553E+006  0.3486840E+01  0.7546771E-02  0.2387623E+00
         22   -1    0    0    0    0  0.00000000000E+00  0.00000000000E+00  0.79643040666E+00  0.79643040666E+00  0.00000000000E+00 0. -1.
         22   -1    0    0    0    0 -0.00000000000E+00 -0.00000000000E+00 -0.19619498518E+02  0.19619498518E+02  0.00000000000E+00 0.  1.
          4    1    1    2  501    0 -0.71219462064E+00  0.31682698742E+01 -0.46028068163E+01  0.57744164867E+01  0.12700000000E+01 0. -1.
         -4    1    1    2    0  501  0.71219462064E+00 -0.31682698742E+01 -0.14220261295E+02  0.14641512438E+02  0.12700000000E+01 0.  1.
<mgrwt>
<rscale>  0 0.34868403E+01</rscale>
<asrwt>0</asrwt>
<pdfrwt beam="1">0</pdfrwt>
<pdfrwt beam="2">0</pdfrwt>
<totfact> 0.89935287E+11</totfact>
</mgrwt>
</event>
<event>
 4    1  0.1750553E+006  0.3774445E+01  0.7546771E-02  0.2322601E+00
         22   -1    0    0    0    0  0.00000000000E+00  0.00000000000E+00  0.12982267652E+01  0.12982267652E+01  0.00000000000E+00 0.  1.
         22   -1    0    0    0    0 -0.00000000000E+00 -0.00000000000E+00 -0.12449223204E+02  0.12449223204E+02  0.00000000000E+00 0. -1.
          4    1    1    2  501    0 -0.28561564950E+01 -0.21156341903E+01 -0.79418766402E+01  0.87931702201E+01  0.12700000000E+01 0.  1.
         -4    1    1    2    0  501  0.28561564950E+01  0.21156341903E+01 -0.32091197989E+01  0.49542797493E+01  0.12700000000E+01 0. -1.
<mgrwt>
<rscale>  0 0.37744454E+01</rscale>
<asrwt>0</asrwt>
<pdfrwt beam="1">0</pdfrwt>
<pdfrwt beam="2">0</pdfrwt>
<totfact> 0.90177743E+11</totfact>
</mgrwt>
</event>
<event>
 4    1  0.1750553E+006  0.2363918E+01  0.7546771E-02  0.2771744E+00
         22   -1    0    0    0    0  0.00000000000E+00  0.00000000000E+00  0.12348499331E+02  0.12348499331E+02  0.00000000000E+00 0. -1.
         22   -1    0    0    0    0 -0.00000000000E+00 -0.00000000000E+00 -0.63679826185E+00  0.63679826185E+00  0.00000000000E+00 0. -1.
          4    1    1    2  501    0  0.17615018767E+01 -0.93398125206E+00  0.93483962616E+01  0.96426460324E+01  0.12700000000E+01 0. -1.
         -4    1    1    2    0  501 -0.17615018767E+01  0.93398125206E+00  0.23633048072E+01  0.33426515602E+01  0.12700000000E+01 0. -1.
<mgrwt>
<rscale>  0 0.23639183E+01</rscale>
<asrwt>0</asrwt>
<pdfrwt beam="1">0</pdfrwt>
<pdfrwt beam="2">0</pdfrwt>
<totfact> 0.20516436E+12</totfact>
</mgrwt>
</event>
<event>
 4    1  0.1750553E+006  0.2413930E+01  0.7546771E-02  0.2747736E+00
         22   -1    0    0    0    0  0.00000000000E+00  0.00000000000E+00  0.12284582435E+00  0.12284582435E+00  0.00000000000E+00 0.  1.
         22   -1    0    0    0    0 -0.00000000000E+00 -0.00000000000E+00 -0.53526465430E+02  0.53526465430E+02  0.00000000000E+00 0. -1.
          4    1    1    2  501    0 -0.92335294584E+00 -0.18334604733E+01 -0.35751830252E+02  0.35833230727E+02  0.12700000000E+01 0. -1.
         -4    1    1    2    0  501  0.92335294584E+00  0.18334604733E+01 -0.17651789354E+02  0.17816080527E+02  0.12700000000E+01 0.  1.
<mgrwt>
<rscale>  0 0.24139300E+01</rscale>
<asrwt>0</asrwt>
<pdfrwt beam="1">0</pdfrwt>
<pdfrwt beam="2">0</pdfrwt>
<totfact> 0.20238610E+12</totfact>
</mgrwt>
</event>
<event>
 4    1  0.1750553E+006  0.4381521E+01  0.7546771E-02  0.2209804E+00
         22   -1    0    0    0    0  0.00000000000E+00  0.00000000000E+00  0.81569774792E+01  0.81569774792E+01  0.00000000000E+00 0. -1.
         22   -1    0    0    0    0 -0.00000000000E+00 -0.00000000000E+00 -0.57441825181E+01  0.57441825181E+01  0.00000000000E+00 0.  1.
          4    1    1    2  501    0  0.41459762659E+01 -0.62905260237E+00  0.65464840431E+01  0.78774475372E+01  0.12700000000E+01 0. -1.
         -4    1    1    2    0  501 -0.41459762659E+01  0.62905260237E+00 -0.41336890820E+01  0.60237124600E+01  0.12700000000E+01 0.  1.
<mgrwt>
<rscale>  0 0.43815210E+01</rscale>
<asrwt>0</asrwt>
<pdfrwt beam="1">0</pdfrwt>
<pdfrwt beam="2">0</pdfrwt>
<totfact> 0.26556018E+11</totfact>
</mgrwt>
</event>
<event>
 4    1  0.1750553E+006  0.4373551E+01  0.7546771E-02  0.2211111E+00
         22   -1    0    0    0    0  0.00000000000E+00  0.00000000000E+00  0.22648431660E+01  0.22648431660E+01  0.00000000000E+00 0.  1.
         22   -1    0    0    0    0 -0.00000000000E+00 -0.00000000000E+00 -0.85993030912E+01  0.85993030912E+01  0.00000000000E+00 0. -1.
          4    1    1    2  501    0 -0.22550173962E+01  0.35256124343E+01 -0.24409846246E+01  0.50086277993E+01  0.12700000000E+01 0.  1.
         -4    1    1    2    0  501  0.22550173962E+01 -0.35256124343E+01 -0.38934753006E+01  0.58555184579E+01  0.12700000000E+01 0. -1.
<mgrwt>
<rscale>  0 0.43735508E+01</rscale>
<asrwt>0</asrwt>
<pdfrwt beam="1">0</pdfrwt>
<pdfrwt beam="2">0</pdfrwt>
<totfact> 0.74312895E+11</totfact>
</mgrwt>
</event>
<event>
 4    1  0.1750553E+006  0.2081214E+01  0.7546771E-02  0.2927982E+00
         22   -1    0    0    0    0  0.00000000000E+00  0.00000000000E+00  0.19408444533E+02  0.19408444533E+02  0.00000000000E+00 0.  1.
         22   -1    0    0    0    0 -0.00000000000E+00 -0.00000000000E+00 -0.76033450263E+00  0.76033450263E+00  0.00000000000E+00 0.  1.
          4    1    1    2  501    0 -0.14700197924E+00  0.16422374002E+01  0.17800220818E+02  0.17921476346E+02  0.12700000000E+01 0.  1.
         -4    1    1    2    0  501  0.14700197924E+00 -0.16422374002E+01  0.84788921223E+00  0.22473026892E+01  0.12700000000E+01 0.  1.
<mgrwt>
<rscale>  0 0.20812144E+01</rscale>
<asrwt>0</asrwt>
<pdfrwt beam="1">0</pdfrwt>
<pdfrwt beam="2">0</pdfrwt>
<totfact> 0.96081076E+11</totfact>
</mgrwt>
</event>
<event>
 4    1  0.1750553E+006  0.2171946E+01  0.7546771E-02  0.2873593E+00
         22   -1    0    0    0    0  0.00000000000E+00  0.00000000000E+00  0.23972031659E+00  0.23972031659E+00  0.00000000000E+00 0.  1.
         22   -1    0    0    0    0 -0.00000000000E+00 -0.00000000000E+00 -0.34447633145E+02  0.34447633145E+02  0.00000000000E+00 0.  1.
          4    1    1    2  501    0  0.17549761074E+01 -0.15655552864E+00 -0.57476242028E+01  0.61443091351E+01  0.12700000000E+01 0.  1.
         -4    1    1    2    0  501 -0.17549761074E+01  0.15655552864E+00 -0.28460288625E+02  0.28543044326E+02  0.12700000000E+01 0.  1.
<mgrwt>
<rscale>  0 0.21719463E+01</rscale>
<asrwt>0</asrwt>
<pdfrwt beam="1">0</pdfrwt>
<pdfrwt beam="2">0</pdfrwt>
<totfact> 0.17082823E+12</totfact>
</mgrwt>
</event>
<event>
 4    1  0.1750553E+006  0.2410122E+01  0.7546771E-02  0.2749531E+00
         22   -1    0    0    0    0  0.00000000000E+00  0.00000000000E+00  0.27810799325E+02  0.27810799325E+02  0.00000000000E+00 0. -1.
         22   -1    0    0    0    0 -0.00000000000E+00 -0.00000000000E+00 -0.25515965104E+00  0.25515965104E+00  0.00000000000E+00 0.  1.
          4    1    1    2  501    0 -0.12431614048E+01 -0.16279859348E+01  0.19755211029E+02  0.19901684634E+02  0.12700000000E+01 0. -1.
         -4    1    1    2    0  501  0.12431614048E+01  0.16279859348E+01  0.78004286447E+01  0.81642743415E+01  0.12700000000E+01 0.  1.
<mgrwt>
<rscale>  0 0.24101221E+01</rscale>
<asrwt>0</asrwt>
<pdfrwt beam="1">0</pdfrwt>
<pdfrwt beam="2">0</pdfrwt>
<totfact> 0.20938201E+12</totfact>
</mgrwt>
</event>
<event>
 4    1  0.1750553E+006  0.2128864E+01  0.7546771E-02  0.2898860E+00
         22   -1    0    0    0    0  0.00000000000E+00  0.00000000000E+00  0.13683312767E+02  0.13683312767E+02  0.00000000000E+00 0.  1.
         22   -1    0    0    0    0 -0.00000000000E+00 -0.00000000000E+00 -0.33217097843E+00  0.33217097843E+00  0.00000000000E+00 0. -1.
          4    1    1    2  501    0  0.13502240678E+01  0.10469280171E+01  0.62988371015E+01  0.66488654775E+01  0.12700000000E+01 0. -1.
         -4    1    1    2    0  501 -0.13502240678E+01 -0.10469280171E+01  0.70523046866E+01  0.73666182675E+01  0.12700000000E+01 0.  1.
<mgrwt>
<rscale>  0 0.21288643E+01</rscale>
<asrwt>0</asrwt>
<pdfrwt beam="1">0</pdfrwt>
<pdfrwt beam="2">0</pdfrwt>
<totfact> 0.37701053E+12</totfact>
</mgrwt>
</event>
<event>
 4    1  0.1750553E+006  0.4747497E+01  0.7546771E-02  0.2154407E+00
         22   -1    0    0    0    0  0.00000000000E+00  0.00000000000E+00  0.10557578218E+03  0.10557578218E+03  0.00000000000E+00 0. -1.
         22   -1    0    0    0    0 -0.00000000000E+00 -0.00000000000E+00 -0.29896161377E+00  0.29896161377E+00  0.00000000000E+00 0.  1.
          4    1    1    2  501    0  0.43385959193E+01  0.14499684969E+01  0.80944590559E+02  0.81083694192E+02  0.12700000000E+01 0. -1.
         -4    1    1    2    0  501 -0.43385959193E+01 -0.14499684969E+01  0.24332230009E+02  0.24791049602E+02  0.12700000000E+01 0.  1.
<mgrwt>
<rscale>  0 0.47474965E+01</rscale>
<asrwt>0</asrwt>
<pdfrwt beam="1">0</pdfrwt>
<pdfrwt beam="2">0</pdfrwt>
<totfact> 0.29648892E+11</totfact>
</mgrwt>
</event>
<event>
 4    1  0.1750553E+006  0.2483894E+01  0.7546771E-02  0.2715673E+00
         22   -1    0    0    0    0  0.00000000000E+00  0.00000000000E+00  0.29135410710E+01  0.29135410710E+01  0.00000000000E+00 0. -1.
         22   -1    0    0    0    0 -0.00000000000E+00 -0.00000000000E+00 -0.26277711662E+01  0.26277711662E+01  0.00000000000E+00 0. -1.
          4    1    1    2  501    0 -0.17529528470E+01  0.12181904977E+01  0.13636843236E+01  0.28336137188E+01  0.12700000000E+01 0. -1.
         -4    1    1    2    0  501  0.17529528470E+01 -0.12181904977E+01 -0.10779144188E+01  0.27076985185E+01  0.12700000000E+01 0. -1.
<mgrwt>
<rscale>  0 0.24838945E+01</rscale>
<asrwt>0</asrwt>
<pdfrwt beam="1">0</pdfrwt>
<pdfrwt beam="2">0</pdfrwt>
<totfact> 0.22534304E+12</totfact>
</mgrwt>
</event>
<event>
 4    1  0.1750553E+006  0.2103292E+01  0.7546771E-02  0.2914330E+00
         22   -1    0    0    0    0  0.00000000000E+00  0.00000000000E+00  0.51846221513E-01  0.51846221513E-01  0.00000000000E+00 0.  1.
         22   -1    0    0    0    0 -0.00000000000E+00 -0.00000000000E+00 -0.87640743219E+02  0.87640743219E+02  0.00000000000E+00 0. -1.
          4    1    1    2  501    0  0.42297929422E+00 -0.16223521205E+01 -0.36668900432E+02  0.36729172286E+02  0.12700000000E+01 0.  1.
         -4    1    1    2    0  501 -0.42297929422E+00  0.16223521205E+01 -0.50919996566E+02  0.50963417155E+02  0.12700000000E+01 0. -1.
<mgrwt>
<rscale>  0 0.21032922E+01</rscale>
<asrwt>0</asrwt>
<pdfrwt beam="1">0</pdfrwt>
<pdfrwt beam="2">0</pdfrwt>
<totfact> 0.26903388E+12</totfact>
</mgrwt>
</event>
<event>
 4    1  0.1750553E+006  0.2177853E+01  0.7546771E-02  0.2870204E+00
         22   -1    0    0    0    0  0.00000000000E+00  0.00000000000E+00  0.40244820099E+01  0.40244820099E+01  0.00000000000E+00 0.  1.
         22   -1    0    0    0    0 -0.00000000000E+00 -0.00000000000E+00 -0.36302103752E+01  0.36302103752E+01  0.00000000000E+00 0.  1.
          4    1    1    2  501    0  0.14711476570E+01 -0.98278680087E+00  0.33424365709E+01  0.39893517713E+01  0.12700000000E+01 0.  1.
         -4    1    1    2    0  501 -0.14711476570E+01  0.98278680087E+00 -0.29481649362E+01  0.36653406138E+01  0.12700000000E+01 0.  1.
<mgrwt>
<rscale>  0 0.21778534E+01</rscale>
<asrwt>0</asrwt>
<pdfrwt beam="1">0</pdfrwt>
<pdfrwt beam="2">0</pdfrwt>
<totfact> 0.10576123E+12</totfact>
</mgrwt>
</event>
<event>
 4    1  0.1750553E+006  0.2443056E+01  0.7546771E-02  0.2734180E+00
         22   -1    0    0    0    0  0.00000000000E+00  0.00000000000E+00  0.18926626837E+00  0.18926626837E+00  0.00000000000E+00 0.  1.
         22   -1    0    0    0    0 -0.00000000000E+00 -0.00000000000E+00 -0.32219986247E+02  0.32219986247E+02  0.00000000000E+00 0. -1.
          4    1    1    2  501    0 -0.20079774050E+01 -0.56890165994E+00 -0.18378010805E+02  0.18539681861E+02  0.12700000000E+01 0. -1.
         -4    1    1    2    0  501  0.20079774050E+01  0.56890165994E+00 -0.13652709174E+02  0.13869570655E+02  0.12700000000E+01 0. -1.
<mgrwt>
<rscale>  0 0.24430559E+01</rscale>
<asrwt>0</asrwt>
<pdfrwt beam="1">0</pdfrwt>
<pdfrwt beam="2">0</pdfrwt>
<totfact> 0.24232400E+12</totfact>
</mgrwt>
</event>
<event>
 4    1  0.1750553E+006  0.2202407E+01  0.7546771E-02  0.2856303E+00
         22   -1    0    0    0    0  0.00000000000E+00  0.00000000000E+00  0.87028018337E+01  0.87028018337E+01  0.00000000000E+00 0.  1.
         22   -1    0    0    0    0 -0.00000000000E+00 -0.00000000000E+00 -0.68233989258E+00  0.68233989258E+00  0.00000000000E+00 0. -1.
          4    1    1    2  501    0  0.15893422660E+01  0.84361524312E+00  0.60185382162E+01  0.64088530781E+01  0.12700000000E+01 0.  1.
         -4    1    1    2    0  501 -0.15893422660E+01 -0.84361524312E+00  0.20019237249E+01  0.29762886482E+01  0.12700000000E+01 0. -1.
<mgrwt>
<rscale>  0 0.22024068E+01</rscale>
<asrwt>0</asrwt>
<pdfrwt beam="1">0</pdfrwt>
<pdfrwt beam="2">0</pdfrwt>
<totfact> 0.28995698E+12</totfact>
</mgrwt>
</event>
<event>
 4    1  0.1750553E+006  0.2447284E+01  0.7546771E-02  0.2732237E+00
         22   -1    0    0    0    0  0.00000000000E+00  0.00000000000E+00  0.63880139802E+00  0.63880139802E+00  0.00000000000E+00 0. -1.
         22   -1    0    0    0    0 -0.00000000000E+00 -0.00000000000E+00 -0.11901683897E+02  0.11901683897E+02  0.00000000000E+00 0.  1.
          4    1    1    2  501    0  0.47523874727E-01  0.20914205275E+01 -0.27427772060E+01  0.36758706647E+01  0.12700000000E+01 0. -1.
         -4    1    1    2    0  501 -0.47523874727E-01 -0.20914205275E+01 -0.85201052930E+01  0.88646146304E+01  0.12700000000E+01 0.  1.
<mgrwt>
<rscale>  0 0.24472839E+01</rscale>
<asrwt>0</asrwt>
<pdfrwt beam="1">0</pdfrwt>
<pdfrwt beam="2">0</pdfrwt>
<totfact> 0.21383764E+12</totfact>
</mgrwt>
</event>
<event>
 4    1  0.1750553E+006  0.2036149E+01  0.7546771E-02  0.2956743E+00
         22   -1    0    0    0    0  0.00000000000E+00  0.00000000000E+00  0.60284743862E+00  0.60284743862E+00  0.00000000000E+00 0. -1.
         22   -1    0    0    0    0 -0.00000000000E+00 -0.00000000000E+00 -0.10122652342E+02  0.10122652342E+02  0.00000000000E+00 0.  1.
          4    1    1    2  501    0 -0.67116972287E+00  0.14430991007E+01 -0.17233705799E+01  0.26675663004E+01  0.12700000000E+01 0. -1.
         -4    1    1    2    0  501  0.67116972287E+00 -0.14430991007E+01 -0.77964343233E+01  0.80579334801E+01  0.12700000000E+01 0.  1.
<mgrwt>
<rscale>  0 0.20361493E+01</rscale>
<asrwt>0</asrwt>
<pdfrwt beam="1">0</pdfrwt>
<pdfrwt beam="2">0</pdfrwt>
<totfact> 0.27796755E+12</totfact>
</mgrwt>
</event>
<event>
 4    1  0.1750553E+006  0.2353540E+01  0.7546771E-02  0.2776846E+00
         22   -1    0    0    0    0  0.00000000000E+00  0.00000000000E+00  0.14823925483E+02  0.14823925483E+02  0.00000000000E+00 0.  1.
         22   -1    0    0    0    0 -0.00000000000E+00 -0.00000000000E+00 -0.13561979076E+01  0.13561979076E+01  0.00000000000E+00 0. -1.
          4    1    1    2  501    0 -0.14859859290E+01 -0.13107614085E+01  0.13619821242E+02  0.13821674295E+02  0.12700000000E+01 0.  1.
         -4    1    1    2    0  501  0.14859859290E+01  0.13107614085E+01 -0.15209366694E+00  0.23584490952E+01  0.12700000000E+01 0. -1.
<mgrwt>
<rscale>  0 0.23535398E+01</rscale>
<asrwt>0</asrwt>
<pdfrwt beam="1">0</pdfrwt>
<pdfrwt beam="2">0</pdfrwt>
<totfact> 0.69244127E+11</totfact>
</mgrwt>
</event>
<event>
 4    1  0.1750553E+006  0.2117951E+01  0.7546771E-02  0.2905417E+00
         22   -1    0    0    0    0  0.00000000000E+00  0.00000000000E+00  0.44555150896E+01  0.44555150896E+01  0.00000000000E+00 0.  1.
         22   -1    0    0    0    0 -0.00000000000E+00 -0.00000000000E+00 -0.10087480149E+01  0.10087480149E+01  0.00000000000E+00 0.  1.
          4    1    1    2  501    0 -0.16808060599E+01 -0.21842323462E+00  0.18441001610E+01  0.28082776081E+01  0.12700000000E+01 0.  1.
         -4    1    1    2    0  501  0.16808060599E+01  0.21842323462E+00  0.16026669137E+01  0.26559854963E+01  0.12700000000E+01 0.  1.
<mgrwt>
<rscale>  0 0.21179513E+01</rscale>
<asrwt>0</asrwt>
<pdfrwt beam="1">0</pdfrwt>
<pdfrwt beam="2">0</pdfrwt>
<totfact> 0.41271356E+12</totfact>
</mgrwt>
</event>
<event>
 4    1  0.1750553E+006  0.2124845E+01  0.7546771E-02  0.2901267E+00
         22   -1    0    0    0    0  0.00000000000E+00  0.00000000000E+00  0.20977298056E+02  0.20977298056E+02  0.00000000000E+00 0.  1.
         22   -1    0    0    0    0 -0.00000000000E+00 -0.00000000000E+00 -0.21688862589E+00  0.21688862589E+00  0.00000000000E+00 0. -1.
          4    1    1    2  501    0  0.33700433032E+00 -0.16698785793E+01  0.11306611976E+02  0.11504540007E+02  0.12700000000E+01 0. -1.
         -4    1    1    2    0  501 -0.33700433032E+00  0.16698785793E+01  0.94537974546E+01  0.96896466758E+01  0.12700000000E+01 0. -1.
<mgrwt>
<rscale>  0 0.21248450E+01</rscale>
<asrwt>0</asrwt>
<pdfrwt beam="1">0</pdfrwt>
<pdfrwt beam="2">0</pdfrwt>
<totfact> 0.35809957E+12</totfact>
</mgrwt>
</event>
<event>
 4    1  0.1750553E+006  0.2008021E+01  0.7546771E-02  0.2975334E+00
         22   -1    0    0    0    0  0.00000000000E+00  0.00000000000E+00  0.10349576313E+02  0.10349576313E+02  0.00000000000E+00 0.  1.
         22   -1    0    0    0    0 -0.00000000000E+00 -0.00000000000E+00 -0.39139117050E+00  0.39139117050E+00  0.00000000000E+00 0. -1.
          4    1    1    2  501    0 -0.15553933884E+01 -0.98084769670E-03  0.46153390202E+01  0.50332398936E+01  0.12700000000E+01 0.  1.
         -4    1    1    2    0  501  0.15553933884E+01  0.98084769670E-03  0.53428461227E+01  0.57077275904E+01  0.12700000000E+01 0. -1.
<mgrwt>
<rscale>  0 0.20080213E+01</rscale>
<asrwt>0</asrwt>
<pdfrwt beam="1">0</pdfrwt>
<pdfrwt beam="2">0</pdfrwt>
<totfact> 0.44063482E+12</totfact>
</mgrwt>
</event>
<event>
 4    1  0.1750553E+006  0.3099494E+01  0.7546771E-02  0.2491644E+00
         22   -1    0    0    0    0  0.00000000000E+00  0.00000000000E+00  0.97955116546E+00  0.97955116546E+00  0.00000000000E+00 0.  1.
         22   -1    0    0    0    0 -0.00000000000E+00 -0.00000000000E+00 -0.98327791832E+01  0.98327791832E+01  0.00000000000E+00 0. -1.
          4    1    1    2  501    0 -0.17881072327E+01  0.21901221601E+01 -0.41520262334E+01  0.51813303691E+01  0.12700000000E+01 0.  1.
         -4    1    1    2    0  501  0.17881072327E+01 -0.21901221601E+01 -0.47012017844E+01  0.56309999795E+01  0.12700000000E+01 0. -1.
<mgrwt>
<rscale>  0 0.30994939E+01</rscale>
<asrwt>0</asrwt>
<pdfrwt beam="1">0</pdfrwt>
<pdfrwt beam="2">0</pdfrwt>
<totfact> 0.16582119E+12</totfact>
</mgrwt>
</event>
<event>
 4    1  0.1750553E+006  0.2042956E+01  0.7546771E-02  0.2952320E+00
         22   -1    0    0    0    0  0.00000000000E+00  0.00000000000E+00  0.63844376755E+01  0.63844376755E+01  0.00000000000E+00 0.  1.
         22   -1    0    0    0    0 -0.00000000000E+00 -0.00000000000E+00 -0.94910353428E+00  0.94910353428E+00  0.00000000000E+00 0. -1.
          4    1    1    2  501    0 -0.13418328698E+01 -0.87192431995E+00  0.47632462840E+01  0.51828739742E+01  0.12700000000E+01 0. -1.
         -4    1    1    2    0  501  0.13418328698E+01  0.87192431995E+00  0.67208785720E+00  0.21506672356E+01  0.12700000000E+01 0. -1.
<mgrwt>
<rscale>  0 0.20429556E+01</rscale>
<asrwt>0</asrwt>
<pdfrwt beam="1">0</pdfrwt>
<pdfrwt beam="2">0</pdfrwt>
<totfact> 0.28875283E+12</totfact>
</mgrwt>
</event>
<event>
 4    1  0.1750553E+006  0.3777073E+01  0.7546771E-02  0.2322046E+00
         22   -1    0    0    0    0  0.00000000000E+00  0.00000000000E+00  0.23362850802E+00  0.23362850802E+00  0.00000000000E+00 0.  1.
         22   -1    0    0    0    0 -0.00000000000E+00 -0.00000000000E+00 -0.97231500788E+02  0.97231500788E+02  0.00000000000E+00 0. -1.
          4    1    1    2  501    0  0.24519465652E+01 -0.25770801040E+01 -0.18777128933E+02  0.19153246586E+02  0.12700000000E+01 0. -1.
         -4    1    1    2    0  501 -0.24519465652E+01  0.25770801040E+01 -0.78220743347E+02  0.78311882710E+02  0.12700000000E+01 0.  1.
<mgrwt>
<rscale>  0 0.37770734E+01</rscale>
<asrwt>0</asrwt>
<pdfrwt beam="1">0</pdfrwt>
<pdfrwt beam="2">0</pdfrwt>
<totfact> 0.43883313E+11</totfact>
</mgrwt>
</event>
<event>
 4    1  0.1750553E+006  0.2038612E+01  0.7546771E-02  0.2955139E+00
         22   -1    0    0    0    0  0.00000000000E+00  0.00000000000E+00  0.35305844646E+02  0.35305844646E+02  0.00000000000E+00 0.  1.
         22   -1    0    0    0    0 -0.00000000000E+00 -0.00000000000E+00 -0.12176881748E+00  0.12176881748E+00  0.00000000000E+00 0. -1.
          4    1    1    2  501    0  0.93204194000E+00 -0.12939621681E+01  0.20825056949E+02  0.20924601243E+02  0.12700000000E+01 0.  1.
         -4    1    1    2    0  501 -0.93204194000E+00  0.12939621681E+01  0.14359018880E+02  0.14503012220E+02  0.12700000000E+01 0. -1.
<mgrwt>
<rscale>  0 0.20386123E+01</rscale>
<asrwt>0</asrwt>
<pdfrwt beam="1">0</pdfrwt>
<pdfrwt beam="2">0</pdfrwt>
<totfact> 0.35185690E+12</totfact>
</mgrwt>
</event>
<event>
 4    1  0.1750553E+006  0.2703444E+01  0.7546771E-02  0.2625109E+00
         22   -1    0    0    0    0  0.00000000000E+00  0.00000000000E+00  0.66254284602E+00  0.66254284602E+00  0.00000000000E+00 0.  1.
         22   -1    0    0    0    0 -0.00000000000E+00 -0.00000000000E+00 -0.11160171631E+02  0.11160171631E+02  0.00000000000E+00 0.  1.
          4    1    1    2  501    0 -0.70184645913E+00  0.22810356625E+01 -0.46132254222E+01  0.53470048571E+01  0.12700000000E+01 0.  1.
         -4    1    1    2    0  501  0.70184645913E+00 -0.22810356625E+01 -0.58844033629E+01  0.64757096200E+01  0.12700000000E+01 0.  1.
<mgrwt>
<rscale>  0 0.27034445E+01</rscale>
<asrwt>0</asrwt>
<pdfrwt beam="1">0</pdfrwt>
<pdfrwt beam="2">0</pdfrwt>
<totfact> 0.22188836E+12</totfact>
</mgrwt>
</event>
<event>
 4    1  0.1750553E+006  0.4933827E+01  0.7546771E-02  0.2130986E+00
         22   -1    0    0    0    0  0.00000000000E+00  0.00000000000E+00  0.12428610233E+01  0.12428610233E+01  0.00000000000E+00 0.  1.
         22   -1    0    0    0    0 -0.00000000000E+00 -0.00000000000E+00 -0.19596587612E+02  0.19596587612E+02  0.00000000000E+00 0.  1.
          4    1    1    2  501    0  0.42259848362E+01  0.22069898831E+01 -0.94192773307E+01  0.10633223294E+02  0.12700000000E+01 0.  1.
         -4    1    1    2    0  501 -0.42259848362E+01 -0.22069898831E+01 -0.89344492578E+01  0.10206225341E+02  0.12700000000E+01 0.  1.
<mgrwt>
<rscale>  0 0.49338273E+01</rscale>
<asrwt>0</asrwt>
<pdfrwt beam="1">0</pdfrwt>
<pdfrwt beam="2">0</pdfrwt>
<totfact> 0.54182973E+11</totfact>
</mgrwt>
</event>
<event>
 4    1  0.1750553E+006  0.2344080E+01  0.7546771E-02  0.2781534E+00
         22   -1    0    0    0    0  0.00000000000E+00  0.00000000000E+00  0.41074079642E+01  0.41074079642E+01  0.00000000000E+00 0. -1.
         22   -1    0    0    0    0 -0.00000000000E+00 -0.00000000000E+00 -0.13558052259E+01  0.13558052259E+01  0.00000000000E+00 0. -1.
          4    1    1    2  501    0 -0.19439785395E+01 -0.32055920661E+00  0.10606309023E+01  0.25728677926E+01  0.12700000000E+01 0. -1.
         -4    1    1    2    0  501  0.19439785395E+01  0.32055920661E+00  0.16909718359E+01  0.28903453975E+01  0.12700000000E+01 0. -1.
<mgrwt>
<rscale>  0 0.23440799E+01</rscale>
<asrwt>0</asrwt>
<pdfrwt beam="1">0</pdfrwt>
<pdfrwt beam="2">0</pdfrwt>
<totfact> 0.32378344E+12</totfact>
</mgrwt>
</event>
<event>
 4    1  0.1750553E+006  0.3135323E+01  0.7546771E-02  0.2481072E+00
         22   -1    0    0    0    0  0.00000000000E+00  0.00000000000E+00  0.17024715697E+01  0.17024715697E+01  0.00000000000E+00 0. -1.
         22   -1    0    0    0    0 -0.00000000000E+00 -0.00000000000E+00 -0.67183727511E+01  0.67183727511E+01  0.00000000000E+00 0.  1.
          4    1    1    2  501    0  0.28647877991E+01  0.10169199506E+00 -0.92946338297E+00  0.32701915198E+01  0.12700000000E+01 0. -1.
         -4    1    1    2    0  501 -0.28647877991E+01 -0.10169199506E+00 -0.40864377984E+01  0.51506528010E+01  0.12700000000E+01 0. -1.
<mgrwt>
<rscale>  0 0.31353230E+01</rscale>
<asrwt>0</asrwt>
<pdfrwt beam="1">0</pdfrwt>
<pdfrwt beam="2">0</pdfrwt>
<totfact> 0.13901425E+12</totfact>
</mgrwt>
</event>
<event>
 4    1  0.1750553E+006  0.3084174E+01  0.7546771E-02  0.2496231E+00
         22   -1    0    0    0    0  0.00000000000E+00  0.00000000000E+00  0.51570424589E+00  0.51570424589E+00  0.00000000000E+00 0. -1.
         22   -1    0    0    0    0 -0.00000000000E+00 -0.00000000000E+00 -0.21591889704E+02  0.21591889704E+02  0.00000000000E+00 0. -1.
          4    1    1    2  501    0 -0.26759688598E+01  0.85931534608E+00 -0.63181040923E+01  0.70306878415E+01  0.12700000000E+01 0. -1.
         -4    1    1    2    0  501  0.26759688598E+01 -0.85931534608E+00 -0.14758081366E+02  0.15076906109E+02  0.12700000000E+01 0. -1.
<mgrwt>
<rscale>  0 0.30841745E+01</rscale>
<asrwt>0</asrwt>
<pdfrwt beam="1">0</pdfrwt>
<pdfrwt beam="2">0</pdfrwt>
<totfact> 0.13059700E+12</totfact>
</mgrwt>
</event>
<event>
 4    1  0.1750553E+006  0.2921854E+01  0.7546771E-02  0.2547467E+00
         22   -1    0    0    0    0  0.00000000000E+00  0.00000000000E+00  0.52622910498E+00  0.52622910498E+00  0.00000000000E+00 0. -1.
         22   -1    0    0    0    0 -0.00000000000E+00 -0.00000000000E+00 -0.16447483562E+02  0.16447483562E+02  0.00000000000E+00 0. -1.
          4    1    1    2  501    0 -0.26209831412E+01  0.23404571835E+00 -0.69700385750E+01  0.75576893137E+01  0.12700000000E+01 0. -1.
         -4    1    1    2    0  501  0.26209831412E+01 -0.23404571835E+00 -0.89512158822E+01  0.94160233536E+01  0.12700000000E+01 0. -1.
<mgrwt>
<rscale>  0 0.29218539E+01</rscale>
<asrwt>0</asrwt>
<pdfrwt beam="1">0</pdfrwt>
<pdfrwt beam="2">0</pdfrwt>
<totfact> 0.17905547E+12</totfact>
</mgrwt>
</event>
<event>
 4    1  0.1750553E+006  0.2988284E+01  0.7546771E-02  0.2525896E+00
         22   -1    0    0    0    0  0.00000000000E+00  0.00000000000E+00  0.10416557879E+02  0.10416557879E+02  0.00000000000E+00 0. -1.
         22   -1    0    0    0    0 -0.00000000000E+00 -0.00000000000E+00 -0.25734887646E+01  0.25734887646E+01  0.00000000000E+00 0.  1.
          4    1    1    2  501    0  0.15110235920E+01 -0.22436011271E+01  0.92255583733E+01  0.96974618129E+01  0.12700000000E+01 0. -1.
         -4    1    1    2    0  501 -0.15110235920E+01  0.22436011271E+01 -0.13824892592E+01  0.32925848304E+01  0.12700000000E+01 0.  1.
<mgrwt>
<rscale>  0 0.29882835E+01</rscale>
<asrwt>0</asrwt>
<pdfrwt beam="1">0</pdfrwt>
<pdfrwt beam="2">0</pdfrwt>
<totfact> 0.50810326E+11</totfact>
</mgrwt>
</event>
<event>
 4    1  0.1750553E+006  0.2078265E+01  0.7546771E-02  0.2929827E+00
         22   -1    0    0    0    0  0.00000000000E+00  0.00000000000E+00  0.10714040862E+02  0.10714040862E+02  0.00000000000E+00 0. -1.
         22   -1    0    0    0    0 -0.00000000000E+00 -0.00000000000E+00 -0.42129075636E+00  0.42129075636E+00  0.00000000000E+00 0. -1.
          4    1    1    2  501    0 -0.16305108995E+01  0.21844944483E+00  0.63022490004E+01  0.66360777886E+01  0.12700000000E+01 0.  1.
         -4    1    1    2    0  501  0.16305108995E+01 -0.21844944483E+00  0.39905011048E+01  0.44992538294E+01  0.12700000000E+01 0.  1.
<mgrwt>
<rscale>  0 0.20782651E+01</rscale>
<asrwt>0</asrwt>
<pdfrwt beam="1">0</pdfrwt>
<pdfrwt beam="2">0</pdfrwt>
<totfact> 0.38891884E+12</totfact>
</mgrwt>
</event>
<event>
 4    1  0.1750553E+006  0.2172681E+01  0.7546771E-02  0.2873170E+00
         22   -1    0    0    0    0  0.00000000000E+00  0.00000000000E+00  0.11749837822E+02  0.11749837822E+02  0.00000000000E+00 0.  1.
         22   -1    0    0    0    0 -0.00000000000E+00 -0.00000000000E+00 -0.65593253024E+00  0.65593253024E+00  0.00000000000E+00 0. -1.
          4    1    1    2  501    0 -0.16310428512E+01 -0.66883633238E+00  0.94082540216E+01  0.96558679856E+01  0.12700000000E+01 0.  1.
         -4    1    1    2    0  501  0.16310428512E+01  0.66883633238E+00  0.16856512706E+01  0.27499023670E+01  0.12700000000E+01 0. -1.
<mgrwt>
<rscale>  0 0.21726810E+01</rscale>
<asrwt>0</asrwt>
<pdfrwt beam="1">0</pdfrwt>
<pdfrwt beam="2">0</pdfrwt>
<totfact> 0.21078099E+12</totfact>
</mgrwt>
</event>
<event>
 4    1  0.1750553E+006  0.2774436E+01  0.7546771E-02  0.2598654E+00
         22   -1    0    0    0    0  0.00000000000E+00  0.00000000000E+00  0.66038257919E+01  0.66038257919E+01  0.00000000000E+00 0.  1.
         22   -1    0    0    0    0 -0.00000000000E+00 -0.00000000000E+00 -0.12065452794E+01  0.12065452794E+01  0.00000000000E+00 0. -1.
          4    1    1    2  501    0 -0.77083741565E+00  0.23431613953E+01  0.34179409737E+01  0.44022512588E+01  0.12700000000E+01 0.  1.
         -4    1    1    2    0  501  0.77083741565E+00 -0.23431613953E+01  0.19793395389E+01  0.34081198125E+01  0.12700000000E+01 0. -1.
<mgrwt>
<rscale>  0 0.27744361E+01</rscale>
<asrwt>0</asrwt>
<pdfrwt beam="1">0</pdfrwt>
<pdfrwt beam="2">0</pdfrwt>
<totfact> 0.21080799E+12</totfact>
</mgrwt>
</event>
<event>
 4    1  0.1750553E+006  0.2665148E+01  0.7546771E-02  0.2639915E+00
         22   -1    0    0    0    0  0.00000000000E+00  0.00000000000E+00  0.33189492555E+01  0.33189492555E+01  0.00000000000E+00 0.  1.
         22   -1    0    0    0    0 -0.00000000000E+00 -0.00000000000E+00 -0.22975885767E+01  0.22975885767E+01  0.00000000000E+00 0. -1.
          4    1    1    2  501    0  0.24715686003E-01  0.23429690587E+01  0.12458243497E+01  0.29419539740E+01  0.12700000000E+01 0.  1.
         -4    1    1    2    0  501 -0.24715686003E-01 -0.23429690587E+01 -0.22446367092E+00  0.26745838582E+01  0.12700000000E+01 0. -1.
<mgrwt>
<rscale>  0 0.26651482E+01</rscale>
<asrwt>0</asrwt>
<pdfrwt beam="1">0</pdfrwt>
<pdfrwt beam="2">0</pdfrwt>
<totfact> 0.22620407E+12</totfact>
</mgrwt>
</event>
<event>
 4    1  0.1750553E+006  0.3389413E+01  0.7546771E-02  0.2411813E+00
         22   -1    0    0    0    0  0.00000000000E+00  0.00000000000E+00  0.17836924175E+01  0.17836924175E+01  0.00000000000E+00 0. -1.
         22   -1    0    0    0    0 -0.00000000000E+00 -0.00000000000E+00 -0.65747532773E+01  0.65747532773E+01  0.00000000000E+00 0.  1.
          4    1    1    2  501    0  0.20546307206E+01 -0.23777533832E+01 -0.29924195573E+01  0.45213596801E+01  0.12700000000E+01 0.  1.
         -4    1    1    2    0  501 -0.20546307206E+01  0.23777533832E+01 -0.17986413024E+01  0.38370860147E+01  0.12700000000E+01 0. -1.
<mgrwt>
<rscale>  0 0.33894127E+01</rscale>
<asrwt>0</asrwt>
<pdfrwt beam="1">0</pdfrwt>
<pdfrwt beam="2">0</pdfrwt>
<totfact> 0.13517862E+12</totfact>
</mgrwt>
</event>
<event>
 4    1  0.1750553E+006  0.3153427E+01  0.7546771E-02  0.2475812E+00
         22   -1    0    0    0    0  0.00000000000E+00  0.00000000000E+00  0.69002108592E+01  0.69002108592E+01  0.00000000000E+00 0.  1.
         22   -1    0    0    0    0 -0.00000000000E+00 -0.00000000000E+00 -0.19908472686E+01  0.19908472686E+01  0.00000000000E+00 0. -1.
          4    1    1    2  501    0 -0.19234668441E+01  0.21520863593E+01  0.47906891156E+01  0.57353990795E+01  0.12700000000E+01 0.  1.
         -4    1    1    2    0  501  0.19234668441E+01 -0.21520863593E+01  0.11867447505E+00  0.31556590483E+01  0.12700000000E+01 0. -1.
<mgrwt>
<rscale>  0 0.31534268E+01</rscale>
<asrwt>0</asrwt>
<pdfrwt beam="1">0</pdfrwt>
<pdfrwt beam="2">0</pdfrwt>
<totfact> 0.11237705E+12</totfact>
</mgrwt>
</event>
<event>
 4    1  0.1750553E+006  0.2474270E+01  0.7546771E-02  0.2719984E+00
         22   -1    0    0    0    0  0.00000000000E+00  0.00000000000E+00  0.30298113428E+00  0.30298113428E+00  0.00000000000E+00 0.  1.
         22   -1    0    0    0    0 -0.00000000000E+00 -0.00000000000E+00 -0.26774222594E+02  0.26774222594E+02  0.00000000000E+00 0. -1.
          4    1    1    2  501    0  0.11116574421E+00  0.21205546215E+01 -0.65299493345E+01  0.69829970670E+01  0.12700000000E+01 0.  1.
         -4    1    1    2    0  501 -0.11116574421E+00 -0.21205546215E+01 -0.19941292125E+02  0.20094206661E+02  0.12700000000E+01 0. -1.
<mgrwt>
<rscale>  0 0.24742695E+01</rscale>
<asrwt>0</asrwt>
<pdfrwt beam="1">0</pdfrwt>
<pdfrwt beam="2">0</pdfrwt>
<totfact> 0.18125298E+12</totfact>
</mgrwt>
</event>
<event>
 4    1  0.1750553E+006  0.2032201E+01  0.7546771E-02  0.2959322E+00
         22   -1    0    0    0    0  0.00000000000E+00  0.00000000000E+00  0.21563948628E+01  0.21563948628E+01  0.00000000000E+00 0.  1.
         22   -1    0    0    0    0 -0.00000000000E+00 -0.00000000000E+00 -0.20510882665E+01  0.20510882665E+01  0.00000000000E+00 0.  1.
          4    1    1    2  501    0 -0.11159395894E+01 -0.11276615104E+01  0.59422349658E+00  0.21172962035E+01  0.12700000000E+01 0.  1.
         -4    1    1    2    0  501  0.11159395894E+01  0.11276615104E+01 -0.48891690025E+00  0.20901869258E+01  0.12700000000E+01 0.  1.
<mgrwt>
<rscale>  0 0.20322012E+01</rscale>
<asrwt>0</asrwt>
<pdfrwt beam="1">0</pdfrwt>
<pdfrwt beam="2">0</pdfrwt>
<totfact> 0.42638177E+12</totfact>
</mgrwt>
</event>
<event>
 4    1  0.1750553E+006  0.2330275E+01  0.7546771E-02  0.2788440E+00
         22   -1    0    0    0    0  0.00000000000E+00  0.00000000000E+00  0.93529045910E-01  0.93529045910E-01  0.00000000000E+00 0.  1.
         22   -1    0    0    0    0 -0.00000000000E+00 -0.00000000000E+00 -0.58101912180E+02  0.58101912180E+02  0.00000000000E+00 0.  1.
          4    1    1    2  501    0  0.19128965746E+01  0.39762791021E+00 -0.29797095256E+02  0.29888075665E+02  0.12700000000E+01 0.  1.
         -4    1    1    2    0  501 -0.19128965746E+01 -0.39762791021E+00 -0.28211287878E+02  0.28307365561E+02  0.12700000000E+01 0.  1.
<mgrwt>
<rscale>  0 0.23302749E+01</rscale>
<asrwt>0</asrwt>
<pdfrwt beam="1">0</pdfrwt>
<pdfrwt beam="2">0</pdfrwt>
<totfact> 0.24545080E+12</totfact>
</mgrwt>
</event>
<event>
 4    1  0.1750553E+006  0.3151868E+01  0.7546771E-02  0.2476263E+00
         22   -1    0    0    0    0  0.00000000000E+00  0.00000000000E+00  0.11228581456E+02  0.11228581456E+02  0.00000000000E+00 0.  1.
         22   -1    0    0    0    0 -0.00000000000E+00 -0.00000000000E+00 -0.45686099040E+01  0.45686099040E+01  0.00000000000E+00 0. -1.
          4    1    1    2  501    0  0.17017280992E+01 -0.23292685435E+01  0.10422668561E+02  0.10888814922E+02  0.12700000000E+01 0.  1.
         -4    1    1    2    0  501 -0.17017280992E+01  0.23292685435E+01 -0.37626970093E+01  0.49083764378E+01  0.12700000000E+01 0. -1.
<mgrwt>
<rscale>  0 0.31518678E+01</rscale>
<asrwt>0</asrwt>
<pdfrwt beam="1">0</pdfrwt>
<pdfrwt beam="2">0</pdfrwt>
<totfact> 0.23668884E+11</totfact>
</mgrwt>
</event>
<event>
 4    1  0.1750553E+006  0.2074416E+01  0.7546771E-02  0.2932243E+00
         22   -1    0    0    0    0  0.00000000000E+00  0.00000000000E+00  0.11230960796E+02  0.11230960796E+02  0.00000000000E+00 0. -1.
         22   -1    0    0    0    0 -0.00000000000E+00 -0.00000000000E+00 -0.39936858932E+00  0.39936858932E+00  0.00000000000E+00 0.  1.
          4    1    1    2  501    0 -0.26523038855E+00 -0.16186273852E+01  0.65874816935E+01  0.69063823261E+01  0.12700000000E+01 0.  1.
         -4    1    1    2    0  501  0.26523038855E+00  0.16186273852E+01  0.42441105134E+01  0.47239470595E+01  0.12700000000E+01 0.  1.
<mgrwt>
<rscale>  0 0.20744160E+01</rscale>
<asrwt>0</asrwt>
<pdfrwt beam="1">0</pdfrwt>
<pdfrwt beam="2">0</pdfrwt>
<totfact> 0.39005485E+12</totfact>
</mgrwt>
</event>
<event>
 4    1  0.1750553E+006  0.2572958E+01  0.7546771E-02  0.2677213E+00
         22   -1    0    0    0    0  0.00000000000E+00  0.00000000000E+00  0.29569051925E+02  0.29569051925E+02  0.00000000000E+00 0. -1.
         22   -1    0    0    0    0 -0.00000000000E+00 -0.00000000000E+00 -0.22459575965E+00  0.22459575965E+00  0.00000000000E+00 0.  1.
          4    1    1    2  501    0 -0.16235328960E+01  0.15399206712E+01  0.15509299394E+02  0.15721274835E+02  0.12700000000E+01 0. -1.
         -4    1    1    2    0  501  0.16235328960E+01 -0.15399206712E+01  0.13835156771E+02  0.14072372850E+02  0.12700000000E+01 0.  1.
<mgrwt>
<rscale>  0 0.25729584E+01</rscale>
<asrwt>0</asrwt>
<pdfrwt beam="1">0</pdfrwt>
<pdfrwt beam="2">0</pdfrwt>
<totfact> 0.22338536E+12</totfact>
</mgrwt>
</event>
<event>
 4    1  0.1750553E+006  0.2473364E+01  0.7546771E-02  0.2720391E+00
         22   -1    0    0    0    0  0.00000000000E+00  0.00000000000E+00  0.44835160361E+00  0.44835160361E+00  0.00000000000E+00 0. -1.
         22   -1    0    0    0    0 -0.00000000000E+00 -0.00000000000E+00 -0.13666539521E+02  0.13666539521E+02  0.00000000000E+00 0.  1.
          4    1    1    2  501    0 -0.18783330613E+01  0.98817616103E+00 -0.63255917597E+01  0.67919539401E+01  0.12700000000E+01 0.  1.
         -4    1    1    2    0  501  0.18783330613E+01 -0.98817616103E+00 -0.68925961575E+01  0.73229371843E+01  0.12700000000E+01 0. -1.
<mgrwt>
<rscale>  0 0.24733635E+01</rscale>
<asrwt>0</asrwt>
<pdfrwt beam="1">0</pdfrwt>
<pdfrwt beam="2">0</pdfrwt>
<totfact> 0.26945249E+12</totfact>
</mgrwt>
</event>
<event>
 4    1  0.1750553E+006  0.2896307E+01  0.7546771E-02  0.2555999E+00
         22   -1    0    0    0    0  0.00000000000E+00  0.00000000000E+00  0.65225638385E+01  0.65225638385E+01  0.00000000000E+00 0. -1.
         22   -1    0    0    0    0 -0.00000000000E+00 -0.00000000000E+00 -0.14295428870E+01  0.14295428870E+01  0.00000000000E+00 0.  1.
          4    1    1    2  501    0  0.18584172862E+01  0.18226294919E+01  0.12869737898E+01  0.31693681720E+01  0.12700000000E+01 0.  1.
         -4    1    1    2    0  501 -0.18584172862E+01 -0.18226294919E+01  0.38060471617E+01  0.47827385535E+01  0.12700000000E+01 0. -1.
<mgrwt>
<rscale>  0 0.28963068E+01</rscale>
<asrwt>0</asrwt>
<pdfrwt beam="1">0</pdfrwt>
<pdfrwt beam="2">0</pdfrwt>
<totfact> 0.17610707E+12</totfact>
</mgrwt>
</event>
<event>
 4    1  0.1750553E+006  0.5415498E+01  0.7546771E-02  0.2076447E+00
         22   -1    0    0    0    0  0.00000000000E+00  0.00000000000E+00  0.13158473888E+02  0.13158473888E+02  0.00000000000E+00 0. -1.
         22   -1    0    0    0    0 -0.00000000000E+00 -0.00000000000E+00 -0.41823832927E+01  0.41823832927E+01  0.00000000000E+00 0.  1.
          4    1    1    2  501    0  0.39141079304E+01  0.35205794842E+01  0.10413811280E+02  0.11737763252E+02  0.12700000000E+01 0. -1.
         -4    1    1    2    0  501 -0.39141079304E+01 -0.35205794842E+01 -0.14377206851E+01  0.56030939278E+01  0.12700000000E+01 0.  1.
<mgrwt>
<rscale>  0 0.54154982E+01</rscale>
<asrwt>0</asrwt>
<pdfrwt beam="1">0</pdfrwt>
<pdfrwt beam="2">0</pdfrwt>
<totfact> 0.21646951E+11</totfact>
</mgrwt>
</event>
<event>
 4    1  0.1750553E+006  0.2729450E+01  0.7546771E-02  0.2615273E+00
         22   -1    0    0    0    0  0.00000000000E+00  0.00000000000E+00  0.48966560626E+01  0.48966560626E+01  0.00000000000E+00 0. -1.
         22   -1    0    0    0    0 -0.00000000000E+00 -0.00000000000E+00 -0.23583119939E+01  0.23583119939E+01  0.00000000000E+00 0.  1.
          4    1    1    2  501    0  0.11772231509E+01 -0.21097731402E+01  0.34300894867E+01  0.43835386319E+01  0.12700000000E+01 0. -1.
         -4    1    1    2    0  501 -0.11772231509E+01  0.21097731402E+01 -0.89174541808E+00  0.28714294247E+01  0.12700000000E+01 0.  1.
<mgrwt>
<rscale>  0 0.27294500E+01</rscale>
<asrwt>0</asrwt>
<pdfrwt beam="1">0</pdfrwt>
<pdfrwt beam="2">0</pdfrwt>
<totfact> 0.13884859E+12</totfact>
</mgrwt>
</event>
<event>
 4    1  0.1750553E+006  0.2306139E+01  0.7546771E-02  0.2800701E+00
         22   -1    0    0    0    0  0.00000000000E+00  0.00000000000E+00  0.61171055313E+00  0.61171055313E+00  0.00000000000E+00 0.  1.
         22   -1    0    0    0    0 -0.00000000000E+00 -0.00000000000E+00 -0.15351541934E+02  0.15351541934E+02  0.00000000000E+00 0. -1.
          4    1    1    2  501    0  0.15454628866E+01 -0.11475713693E+01 -0.21137514581E+01  0.31282935937E+01  0.12700000000E+01 0.  1.
         -4    1    1    2    0  501 -0.15454628866E+01  0.11475713693E+01 -0.12626079923E+02  0.12834958894E+02  0.12700000000E+01 0. -1.
<mgrwt>
<rscale>  0 0.23061387E+01</rscale>
<asrwt>0</asrwt>
<pdfrwt beam="1">0</pdfrwt>
<pdfrwt beam="2">0</pdfrwt>
<totfact> 0.16442022E+12</totfact>
</mgrwt>
</event>
<event>
 4    1  0.1750553E+006  0.3167300E+01  0.7546771E-02  0.2471817E+00
         22   -1    0    0    0    0  0.00000000000E+00  0.00000000000E+00  0.95914439224E+01  0.95914439224E+01  0.00000000000E+00 0. -1.
         22   -1    0    0    0    0 -0.00000000000E+00 -0.00000000000E+00 -0.11392188125E+01  0.11392188125E+01  0.00000000000E+00 0.  1.
          4    1    1    2  501    0  0.27281478653E+01  0.98797587659E+00  0.26905966903E+01  0.41558510148E+01  0.12700000000E+01 0.  1.
         -4    1    1    2    0  501 -0.27281478653E+01 -0.98797587659E+00  0.57616284197E+01  0.65748117201E+01  0.12700000000E+01 0. -1.
<mgrwt>
<rscale>  0 0.31672997E+01</rscale>
<asrwt>0</asrwt>
<pdfrwt beam="1">0</pdfrwt>
<pdfrwt beam="2">0</pdfrwt>
<totfact> 0.14379104E+12</totfact>
</mgrwt>
</event>
<event>
 4    1  0.1750553E+006  0.2072576E+01  0.7546771E-02  0.2933401E+00
         22   -1    0    0    0    0  0.00000000000E+00  0.00000000000E+00  0.32119315738E+01  0.32119315738E+01  0.00000000000E+00 0. -1.
         22   -1    0    0    0    0 -0.00000000000E+00 -0.00000000000E+00 -0.15729299996E+01  0.15729299996E+01  0.00000000000E+00 0.  1.
          4    1    1    2  501    0 -0.16339848441E+01 -0.11298180406E+00  0.17453211390E+01  0.27095603401E+01  0.12700000000E+01 0. -1.
         -4    1    1    2    0  501  0.16339848441E+01  0.11298180406E+00 -0.10631956479E+00  0.20753012332E+01  0.12700000000E+01 0.  1.
<mgrwt>
<rscale>  0 0.20725760E+01</rscale>
<asrwt>0</asrwt>
<pdfrwt beam="1">0</pdfrwt>
<pdfrwt beam="2">0</pdfrwt>
<totfact> 0.36425464E+12</totfact>
</mgrwt>
</event>
<event>
 4    1  0.1750553E+006  0.2516214E+01  0.7546771E-02  0.2701425E+00
         22   -1    0    0    0    0  0.00000000000E+00  0.00000000000E+00  0.25237312991E+01  0.25237312991E+01  0.00000000000E+00 0.  1.
         22   -1    0    0    0    0 -0.00000000000E+00 -0.00000000000E+00 -0.42965813698E+01  0.42965813698E+01  0.00000000000E+00 0. -1.
          4    1    1    2  501    0 -0.13758560581E+01  0.16809087454E+01  0.13133574561E+01  0.28383519708E+01  0.12700000000E+01 0.  1.
         -4    1    1    2    0  501  0.13758560581E+01 -0.16809087454E+01 -0.30862075268E+01  0.39819606981E+01  0.12700000000E+01 0. -1.
<mgrwt>
<rscale>  0 0.25162142E+01</rscale>
<asrwt>0</asrwt>
<pdfrwt beam="1">0</pdfrwt>
<pdfrwt beam="2">0</pdfrwt>
<totfact> 0.14975097E+12</totfact>
</mgrwt>
</event>
<event>
 4    1  0.1750553E+006  0.2228927E+01  0.7546771E-02  0.2841618E+00
         22   -1    0    0    0    0  0.00000000000E+00  0.00000000000E+00  0.45215084855E+01  0.45215084855E+01  0.00000000000E+00 0.  1.
         22   -1    0    0    0    0 -0.00000000000E+00 -0.00000000000E+00 -0.13181555679E+01  0.13181555679E+01  0.00000000000E+00 0. -1.
          4    1    1    2  501    0 -0.76696836491E+00  0.16634233049E+01  0.27928478425E+01  0.35732501501E+01  0.12700000000E+01 0. -1.
         -4    1    1    2    0  501  0.76696836491E+00 -0.16634233049E+01  0.41050507512E+00  0.22664139032E+01  0.12700000000E+01 0.  1.
<mgrwt>
<rscale>  0 0.22289274E+01</rscale>
<asrwt>0</asrwt>
<pdfrwt beam="1">0</pdfrwt>
<pdfrwt beam="2">0</pdfrwt>
<totfact> 0.29860802E+12</totfact>
</mgrwt>
</event>
<event>
 4    1  0.1750553E+006  0.2337655E+01  0.7546771E-02  0.2784739E+00
         22   -1    0    0    0    0  0.00000000000E+00  0.00000000000E+00  0.42761901256E+01  0.42761901256E+01  0.00000000000E+00 0. -1.
         22   -1    0    0    0    0 -0.00000000000E+00 -0.00000000000E+00 -0.13133148104E+01  0.13133148104E+01  0.00000000000E+00 0.  1.
          4    1    1    2  501    0  0.82768327766E+00  0.17795140273E+01  0.19402419127E+01  0.30379546510E+01  0.12700000000E+01 0. -1.
         -4    1    1    2    0  501 -0.82768327766E+00 -0.17795140273E+01  0.10226334024E+01  0.25515502850E+01  0.12700000000E+01 0.  1.
<mgrwt>
<rscale>  0 0.23376548E+01</rscale>
<asrwt>0</asrwt>
<pdfrwt beam="1">0</pdfrwt>
<pdfrwt beam="2">0</pdfrwt>
<totfact> 0.32027546E+12</totfact>
</mgrwt>
</event>
<event>
 4    1  0.1750553E+006  0.2169592E+01  0.7546771E-02  0.2874949E+00
         22   -1    0    0    0    0  0.00000000000E+00  0.00000000000E+00  0.19871169290E+00  0.19871169290E+00  0.00000000000E+00 0. -1.
         22   -1    0    0    0    0 -0.00000000000E+00 -0.00000000000E+00 -0.23744701456E+02  0.23744701456E+02  0.00000000000E+00 0.  1.
          4    1    1    2  501    0 -0.82503008883E+00 -0.15535623830E+01 -0.12356762464E+02  0.12545784524E+02  0.12700000000E+01 0. -1.
         -4    1    1    2    0  501  0.82503008883E+00  0.15535623830E+01 -0.11189227299E+02  0.11397628625E+02  0.12700000000E+01 0. -1.
<mgrwt>
<rscale>  0 0.21695923E+01</rscale>
<asrwt>0</asrwt>
<pdfrwt beam="1">0</pdfrwt>
<pdfrwt beam="2">0</pdfrwt>
<totfact> 0.33802889E+12</totfact>
</mgrwt>
</event>
<event>
 4    1  0.1750553E+006  0.2409471E+01  0.7546771E-02  0.2749839E+00
         22   -1    0    0    0    0  0.00000000000E+00  0.00000000000E+00  0.53966707434E+00  0.53966707434E+00  0.00000000000E+00 0.  1.
         22   -1    0    0    0    0 -0.00000000000E+00 -0.00000000000E+00 -0.14921272270E+02  0.14921272270E+02  0.00000000000E+00 0.  1.
          4    1    1    2  501    0  0.71764035205E+00  0.19177177358E+01 -0.31072452018E+01  0.39319869956E+01  0.12700000000E+01 0.  1.
         -4    1    1    2    0  501 -0.71764035205E+00 -0.19177177358E+01 -0.11274359993E+02  0.11528952348E+02  0.12700000000E+01 0.  1.
<mgrwt>
<rscale>  0 0.24094707E+01</rscale>
<asrwt>0</asrwt>
<pdfrwt beam="1">0</pdfrwt>
<pdfrwt beam="2">0</pdfrwt>
<totfact> 0.19621971E+12</totfact>
</mgrwt>
</event>
<event>
 4    1  0.1750553E+006  0.2284899E+01  0.7546771E-02  0.2811694E+00
         22   -1    0    0    0    0  0.00000000000E+00  0.00000000000E+00  0.17056384407E+01  0.17056384407E+01  0.00000000000E+00 0.  1.
         22   -1    0    0    0    0 -0.00000000000E+00 -0.00000000000E+00 -0.77009867509E+01  0.77009867509E+01  0.00000000000E+00 0. -1.
          4    1    1    2  501    0 -0.10565938838E+01  0.15784404031E+01  0.65317898778E+00  0.23764274723E+01  0.12700000000E+01 0.  1.
         -4    1    1    2    0  501  0.10565938838E+01 -0.15784404031E+01 -0.66485272980E+01  0.70301977193E+01  0.12700000000E+01 0. -1.
<mgrwt>
<rscale>  0 0.22848993E+01</rscale>
<asrwt>0</asrwt>
<pdfrwt beam="1">0</pdfrwt>
<pdfrwt beam="2">0</pdfrwt>
<totfact> 0.11779686E+12</totfact>
</mgrwt>
</event>
<event>
 4    1  0.1750553E+006  0.2446948E+01  0.7546771E-02  0.2732391E+00
         22   -1    0    0    0    0  0.00000000000E+00  0.00000000000E+00  0.87787339082E+00  0.87787339082E+00  0.00000000000E+00 0. -1.
         22   -1    0    0    0    0 -0.00000000000E+00 -0.00000000000E+00 -0.10376340323E+02  0.10376340323E+02  0.00000000000E+00 0.  1.
          4    1    1    2  501    0  0.20874028048E+01 -0.13192072734E+00 -0.14551626922E+01  0.28469373032E+01  0.12700000000E+01 0. -1.
         -4    1    1    2    0  501 -0.20874028048E+01  0.13192072734E+00 -0.80433042398E+01  0.84072764104E+01  0.12700000000E+01 0.  1.
<mgrwt>
<rscale>  0 0.24469478E+01</rscale>
<asrwt>0</asrwt>
<pdfrwt beam="1">0</pdfrwt>
<pdfrwt beam="2">0</pdfrwt>
<totfact> 0.17603598E+12</totfact>
</mgrwt>
</event>
<event>
 4    1  0.1750553E+006  0.3902578E+01  0.7546771E-02  0.2296313E+00
         22   -1    0    0    0    0  0.00000000000E+00  0.00000000000E+00  0.20341969030E+01  0.20341969030E+01  0.00000000000E+00 0.  1.
         22   -1    0    0    0    0 -0.00000000000E+00 -0.00000000000E+00 -0.19543600676E+02  0.19543600676E+02  0.00000000000E+00 0. -1.
          4    1    1    2  501    0 -0.18583252054E+01  0.31880778255E+01 -0.28073907215E+00  0.39126624206E+01  0.12700000000E+01 0.  1.
         -4    1    1    2    0  501  0.18583252054E+01 -0.31880778255E+01 -0.17228664701E+02  0.17665135158E+02  0.12700000000E+01 0. -1.
<mgrwt>
<rscale>  0 0.39025777E+01</rscale>
<asrwt>0</asrwt>
<pdfrwt beam="1">0</pdfrwt>
<pdfrwt beam="2">0</pdfrwt>
<totfact> 0.30819536E+11</totfact>
</mgrwt>
</event>
<event>
 4    1  0.1750553E+006  0.2378821E+01  0.7546771E-02  0.2764491E+00
         22   -1    0    0    0    0  0.00000000000E+00  0.00000000000E+00  0.24774742459E+00  0.24774742459E+00  0.00000000000E+00 0.  1.
         22   -1    0    0    0    0 -0.00000000000E+00 -0.00000000000E+00 -0.51312491164E+02  0.51312491164E+02  0.00000000000E+00 0. -1.
          4    1    1    2  501    0  0.42970501610E-01 -0.20109804724E+01 -0.63289427209E+01  0.67612354558E+01  0.12700000000E+01 0.  1.
         -4    1    1    2    0  501 -0.42970501610E-01  0.20109804724E+01 -0.44735801019E+02  0.44799003133E+02  0.12700000000E+01 0. -1.
<mgrwt>
<rscale>  0 0.23788209E+01</rscale>
<asrwt>0</asrwt>
<pdfrwt beam="1">0</pdfrwt>
<pdfrwt beam="2">0</pdfrwt>
<totfact> 0.97980322E+11</totfact>
</mgrwt>
</event>
<event>
 4    1  0.1750553E+006  0.2535662E+01  0.7546771E-02  0.2693014E+00
         22   -1    0    0    0    0  0.00000000000E+00  0.00000000000E+00  0.62171364384E+01  0.62171364384E+01  0.00000000000E+00 0.  1.
         22   -1    0    0    0    0 -0.00000000000E+00 -0.00000000000E+00 -0.12695125364E+01  0.12695125364E+01  0.00000000000E+00 0.  1.
          4    1    1    2  501    0 -0.17341863069E+01 -0.13450947088E+01  0.40855271920E+01  0.48084419887E+01  0.12700000000E+01 0.  1.
         -4    1    1    2    0  501  0.17341863069E+01  0.13450947088E+01  0.86209671010E+00  0.26782069861E+01  0.12700000000E+01 0.  1.
<mgrwt>
<rscale>  0 0.25356620E+01</rscale>
<asrwt>0</asrwt>
<pdfrwt beam="1">0</pdfrwt>
<pdfrwt beam="2">0</pdfrwt>
<totfact> 0.21370357E+12</totfact>
</mgrwt>
</event>
<event>
 4    1  0.1750553E+006  0.2260990E+01  0.7546771E-02  0.2824303E+00
         22   -1    0    0    0    0  0.00000000000E+00  0.00000000000E+00  0.28747191036E+00  0.28747191036E+00  0.00000000000E+00 0.  1.
         22   -1    0    0    0    0 -0.00000000000E+00 -0.00000000000E+00 -0.30072137838E+02  0.30072137838E+02  0.00000000000E+00 0. -1.
          4    1    1    2  501    0 -0.22772374032E+00  0.18566958445E+01 -0.51884193373E+01  0.56596618963E+01  0.12700000000E+01 0.  1.
         -4    1    1    2    0  501  0.22772374032E+00 -0.18566958445E+01 -0.24596246590E+02  0.24699947852E+02  0.12700000000E+01 0. -1.
<mgrwt>
<rscale>  0 0.22609904E+01</rscale>
<asrwt>0</asrwt>
<pdfrwt beam="1">0</pdfrwt>
<pdfrwt beam="2">0</pdfrwt>
<totfact> 0.16587055E+12</totfact>
</mgrwt>
</event>
<event>
 4    1  0.1750553E+006  0.2578546E+01  0.7546771E-02  0.2674883E+00
         22   -1    0    0    0    0  0.00000000000E+00  0.00000000000E+00  0.33728238147E+01  0.33728238147E+01  0.00000000000E+00 0. -1.
         22   -1    0    0    0    0 -0.00000000000E+00 -0.00000000000E+00 -0.25939331401E+01  0.25939331401E+01  0.00000000000E+00 0.  1.
          4    1    1    2  501    0  0.85267215058E+00  0.20758006876E+01  0.18510833754E+01  0.31741783116E+01  0.12700000000E+01 0. -1.
         -4    1    1    2    0  501 -0.85267215058E+00 -0.20758006876E+01 -0.10721927008E+01  0.27925786432E+01  0.12700000000E+01 0.  1.
<mgrwt>
<rscale>  0 0.25785458E+01</rscale>
<asrwt>0</asrwt>
<pdfrwt beam="1">0</pdfrwt>
<pdfrwt beam="2">0</pdfrwt>
<totfact> 0.19277730E+12</totfact>
</mgrwt>
</event>
<event>
 4    1  0.1750553E+006  0.2517897E+01  0.7546771E-02  0.2700692E+00
         22   -1    0    0    0    0  0.00000000000E+00  0.00000000000E+00  0.24718441342E+02  0.24718441342E+02  0.00000000000E+00 0. -1.
         22   -1    0    0    0    0 -0.00000000000E+00 -0.00000000000E+00 -0.68849191204E+00  0.68849191204E+00  0.00000000000E+00 0.  1.
          4    1    1    2  501    0 -0.20996088455E+01 -0.56440245789E+00  0.22077807389E+02  0.22220922271E+02  0.12700000000E+01 0. -1.
         -4    1    1    2    0  501  0.20996088455E+01  0.56440245789E+00  0.19521420403E+01  0.31860109831E+01  0.12700000000E+01 0. -1.
<mgrwt>
<rscale>  0 0.25178974E+01</rscale>
<asrwt>0</asrwt>
<pdfrwt beam="1">0</pdfrwt>
<pdfrwt beam="2">0</pdfrwt>
<totfact> 0.79442884E+11</totfact>
</mgrwt>
</event>
<event>
 4    1  0.1750553E+006  0.2485310E+01  0.7546771E-02  0.2715042E+00
         22   -1    0    0    0    0  0.00000000000E+00  0.00000000000E+00  0.52581199772E+01  0.52581199772E+01  0.00000000000E+00 0.  1.
         22   -1    0    0    0    0 -0.00000000000E+00 -0.00000000000E+00 -0.18247957060E+01  0.18247957060E+01  0.00000000000E+00 0. -1.
          4    1    1    2  501    0 -0.13085037195E+01 -0.16886928005E+01  0.38304446831E+01  0.45660783862E+01  0.12700000000E+01 0. -1.
         -4    1    1    2    0  501  0.13085037195E+01  0.16886928005E+01 -0.39712041198E+00  0.25168372971E+01  0.12700000000E+01 0. -1.
<mgrwt>
<rscale>  0 0.24853099E+01</rscale>
<asrwt>0</asrwt>
<pdfrwt beam="1">0</pdfrwt>
<pdfrwt beam="2">0</pdfrwt>
<totfact> 0.17176179E+12</totfact>
</mgrwt>
</event>
<event>
 4    1  0.1750553E+006  0.2268585E+01  0.7546771E-02  0.2820271E+00
         22   -1    0    0    0    0  0.00000000000E+00  0.00000000000E+00  0.44254799953E+01  0.44254799953E+01  0.00000000000E+00 0. -1.
         22   -1    0    0    0    0 -0.00000000000E+00 -0.00000000000E+00 -0.11650788424E+01  0.11650788424E+01  0.00000000000E+00 0. -1.
          4    1    1    2  501    0 -0.12275371777E+01 -0.14236329337E+01  0.17505321192E+01  0.28654564999E+01  0.12700000000E+01 0. -1.
         -4    1    1    2    0  501  0.12275371777E+01  0.14236329337E+01  0.15098690337E+01  0.27251023378E+01  0.12700000000E+01 0. -1.
<mgrwt>
<rscale>  0 0.22685851E+01</rscale>
<asrwt>0</asrwt>
<pdfrwt beam="1">0</pdfrwt>
<pdfrwt beam="2">0</pdfrwt>
<totfact> 0.35283341E+12</totfact>
</mgrwt>
</event>
<event>
 4    1  0.1750553E+006  0.2621196E+01  0.7546771E-02  0.2657396E+00
         22   -1    0    0    0    0  0.00000000000E+00  0.00000000000E+00  0.10216007484E+03  0.10216007484E+03  0.00000000000E+00 0.  1.
         22   -1    0    0    0    0 -0.00000000000E+00 -0.00000000000E+00 -0.11835469373E+00  0.11835469373E+00  0.00000000000E+00 0. -1.
          4    1    1    2  501    0 -0.22327122897E+01  0.52226787719E+00  0.84623620088E+02  0.84664205806E+02  0.12700000000E+01 0.  1.
         -4    1    1    2    0  501  0.22327122897E+01 -0.52226787719E+00  0.17418100063E+02  0.17614223733E+02  0.12700000000E+01 0. -1.
<mgrwt>
<rscale>  0 0.26211959E+01</rscale>
<asrwt>0</asrwt>
<pdfrwt beam="1">0</pdfrwt>
<pdfrwt beam="2">0</pdfrwt>
<totfact> 0.87265509E+11</totfact>
</mgrwt>
</event>
<event>
 4    1  0.1750553E+006  0.3301113E+01  0.7546771E-02  0.2434814E+00
         22   -1    0    0    0    0  0.00000000000E+00  0.00000000000E+00  0.40137821795E+01  0.40137821795E+01  0.00000000000E+00 0. -1.
         22   -1    0    0    0    0 -0.00000000000E+00 -0.00000000000E+00 -0.38465968235E+01  0.38465968235E+01  0.00000000000E+00 0.  1.
          4    1    1    2  501    0  0.14397797715E+01 -0.26854196393E+01  0.22152852091E+01  0.39755292713E+01  0.12700000000E+01 0. -1.
         -4    1    1    2    0  501 -0.14397797715E+01  0.26854196393E+01 -0.20480998531E+01  0.38848497317E+01  0.12700000000E+01 0.  1.
<mgrwt>
<rscale>  0 0.33011126E+01</rscale>
<asrwt>0</asrwt>
<pdfrwt beam="1">0</pdfrwt>
<pdfrwt beam="2">0</pdfrwt>
<totfact> 0.99124735E+11</totfact>
</mgrwt>
</event>
<event>
 4    1  0.1750553E+006  0.2197793E+01  0.7546771E-02  0.2858892E+00
         22   -1    0    0    0    0  0.00000000000E+00  0.00000000000E+00  0.53686027697E+00  0.53686027697E+00  0.00000000000E+00 0.  1.
         22   -1    0    0    0    0 -0.00000000000E+00 -0.00000000000E+00 -0.93014093666E+01  0.93014093666E+01  0.00000000000E+00 0. -1.
          4    1    1    2  501    0  0.15857583140E+01  0.83830945842E+00 -0.34928066080E+01  0.41267408665E+01  0.12700000000E+01 0. -1.
         -4    1    1    2    0  501 -0.15857583140E+01 -0.83830945842E+00 -0.52717424817E+01  0.57115287771E+01  0.12700000000E+01 0. -1.
<mgrwt>
<rscale>  0 0.21977926E+01</rscale>
<asrwt>0</asrwt>
<pdfrwt beam="1">0</pdfrwt>
<pdfrwt beam="2">0</pdfrwt>
<totfact> 0.35109443E+12</totfact>
</mgrwt>
</event>
<event>
 4    1  0.1750553E+006  0.2689721E+01  0.7546771E-02  0.2630370E+00
         22   -1    0    0    0    0  0.00000000000E+00  0.00000000000E+00  0.31149214442E+01  0.31149214442E+01  0.00000000000E+00 0.  1.
         22   -1    0    0    0    0 -0.00000000000E+00 -0.00000000000E+00 -0.25880987762E+01  0.25880987762E+01  0.00000000000E+00 0.  1.
          4    1    1    2  501    0  0.23347969964E+01  0.41282328314E+00  0.11767804716E+01  0.29358835733E+01  0.12700000000E+01 0.  1.
         -4    1    1    2    0  501 -0.23347969964E+01 -0.41282328314E+00 -0.64995780364E+00  0.27671366472E+01  0.12700000000E+01 0.  1.
<mgrwt>
<rscale>  0 0.26897212E+01</rscale>
<asrwt>0</asrwt>
<pdfrwt beam="1">0</pdfrwt>
<pdfrwt beam="2">0</pdfrwt>
<totfact> 0.21214390E+12</totfact>
</mgrwt>
</event>
<event>
 4    1  0.1750553E+006  0.2245668E+01  0.7546771E-02  0.2832519E+00
         22   -1    0    0    0    0  0.00000000000E+00  0.00000000000E+00  0.26908030166E+01  0.26908030166E+01  0.00000000000E+00 0. -1.
         22   -1    0    0    0    0 -0.00000000000E+00 -0.00000000000E+00 -0.62436318834E+01  0.62436318834E+01  0.00000000000E+00 0. -1.
          4    1    1    2  501    0  0.92753891070E+00 -0.16030589480E+01  0.19606651756E+01  0.29811464829E+01  0.12700000000E+01 0. -1.
         -4    1    1    2    0  501 -0.92753891070E+00  0.16030589480E+01 -0.55134940424E+01  0.59532884171E+01  0.12700000000E+01 0. -1.
<mgrwt>
<rscale>  0 0.22456684E+01</rscale>
<asrwt>0</asrwt>
<pdfrwt beam="1">0</pdfrwt>
<pdfrwt beam="2">0</pdfrwt>
<totfact> 0.89239055E+11</totfact>
</mgrwt>
</event>
<event>
 4    1  0.1750553E+006  0.2344533E+01  0.7546771E-02  0.2781309E+00
         22   -1    0    0    0    0  0.00000000000E+00  0.00000000000E+00  0.25606295808E+01  0.25606295808E+01  0.00000000000E+00 0.  1.
         22   -1    0    0    0    0 -0.00000000000E+00 -0.00000000000E+00 -0.11583281950E+02  0.11583281950E+02  0.00000000000E+00 0. -1.
          4    1    1    2  501    0 -0.53637841523E+00 -0.18963740208E+01  0.18717743444E+01  0.30000625706E+01  0.12700000000E+01 0.  1.
         -4    1    1    2    0  501  0.53637841523E+00  0.18963740208E+01 -0.10894426714E+02  0.11143848960E+02  0.12700000000E+01 0. -1.
<mgrwt>
<rscale>  0 0.23445333E+01</rscale>
<asrwt>0</asrwt>
<pdfrwt beam="1">0</pdfrwt>
<pdfrwt beam="2">0</pdfrwt>
<totfact> 0.44919835E+11</totfact>
</mgrwt>
</event>
<event>
 4    1  0.1750553E+006  0.2368604E+01  0.7546771E-02  0.2769454E+00
         22   -1    0    0    0    0  0.00000000000E+00  0.00000000000E+00  0.15617103727E+02  0.15617103727E+02  0.00000000000E+00 0. -1.
         22   -1    0    0    0    0 -0.00000000000E+00 -0.00000000000E+00 -0.40268754993E+00  0.40268754993E+00  0.00000000000E+00 0.  1.
          4    1    1    2  501    0  0.20445946749E+00 -0.19888639305E+01  0.10238245244E+02  0.10508660670E+02  0.12700000000E+01 0. -1.
         -4    1    1    2    0  501 -0.20445946749E+00  0.19888639305E+01  0.49761709330E+01  0.55111306066E+01  0.12700000000E+01 0.  1.
<mgrwt>
<rscale>  0 0.23686037E+01</rscale>
<asrwt>0</asrwt>
<pdfrwt beam="1">0</pdfrwt>
<pdfrwt beam="2">0</pdfrwt>
<totfact> 0.25811230E+12</totfact>
</mgrwt>
</event>
<event>
 4    1  0.1750553E+006  0.3665249E+01  0.7546771E-02  0.2346247E+00
         22   -1    0    0    0    0  0.00000000000E+00  0.00000000000E+00  0.31736352751E+01  0.31736352751E+01  0.00000000000E+00 0.  1.
         22   -1    0    0    0    0 -0.00000000000E+00 -0.00000000000E+00 -0.52801682955E+01  0.52801682955E+01  0.00000000000E+00 0. -1.
          4    1    1    2  501    0  0.13526051533E+01  0.31609507636E+01  0.82909528037E+00  0.37578517021E+01  0.12700000000E+01 0.  1.
         -4    1    1    2    0  501 -0.13526051533E+01 -0.31609507636E+01 -0.29356283007E+01  0.46959518685E+01  0.12700000000E+01 0. -1.
<mgrwt>
<rscale>  0 0.36652490E+01</rscale>
<asrwt>0</asrwt>
<pdfrwt beam="1">0</pdfrwt>
<pdfrwt beam="2">0</pdfrwt>
<totfact> 0.89833271E+11</totfact>
</mgrwt>
</event>
<event>
 4    1  0.1750553E+006  0.2128470E+01  0.7546771E-02  0.2899096E+00
         22   -1    0    0    0    0  0.00000000000E+00  0.00000000000E+00  0.43295642678E+00  0.43295642678E+00  0.00000000000E+00 0.  1.
         22   -1    0    0    0    0 -0.00000000000E+00 -0.00000000000E+00 -0.24462718238E+02  0.24462718238E+02  0.00000000000E+00 0. -1.
          4    1    1    2  501    0 -0.16121773410E+01  0.56424145397E+00 -0.25984080627E+01  0.33588850319E+01  0.12700000000E+01 0.  1.
         -4    1    1    2    0  501  0.16121773410E+01 -0.56424145397E+00 -0.21431353748E+02  0.21536789633E+02  0.12700000000E+01 0. -1.
<mgrwt>
<rscale>  0 0.21284699E+01</rscale>
<asrwt>0</asrwt>
<pdfrwt beam="1">0</pdfrwt>
<pdfrwt beam="2">0</pdfrwt>
<totfact> 0.13599297E+12</totfact>
</mgrwt>
</event>
<event>
 4    1  0.1750553E+006  0.2803338E+01  0.7546771E-02  0.2588234E+00
         22   -1    0    0    0    0  0.00000000000E+00  0.00000000000E+00  0.10424411019E+01  0.10424411019E+01  0.00000000000E+00 0. -1.
         22   -1    0    0    0    0 -0.00000000000E+00 -0.00000000000E+00 -0.78210172919E+01  0.78210172919E+01  0.00000000000E+00 0. -1.
          4    1    1    2  501    0 -0.19366070591E+01 -0.15796705991E+01 -0.42312054747E+01  0.50756089164E+01  0.12700000000E+01 0. -1.
         -4    1    1    2    0  501  0.19366070591E+01  0.15796705991E+01 -0.25473707153E+01  0.37878494775E+01  0.12700000000E+01 0. -1.
<mgrwt>
<rscale>  0 0.28033384E+01</rscale>
<asrwt>0</asrwt>
<pdfrwt beam="1">0</pdfrwt>
<pdfrwt beam="2">0</pdfrwt>
<totfact> 0.20351120E+12</totfact>
</mgrwt>
</event>
<event>
 4    1  0.1750553E+006  0.3172612E+01  0.7546771E-02  0.2470295E+00
         22   -1    0    0    0    0  0.00000000000E+00  0.00000000000E+00  0.84132943091E+01  0.84132943091E+01  0.00000000000E+00 0. -1.
         22   -1    0    0    0    0 -0.00000000000E+00 -0.00000000000E+00 -0.35533360061E+01  0.35533360061E+01  0.00000000000E+00 0. -1.
          4    1    1    2  501    0 -0.15938691243E+01  0.24314909570E+01  0.73030172532E+01  0.79623820594E+01  0.12700000000E+01 0. -1.
         -4    1    1    2    0  501  0.15938691243E+01 -0.24314909570E+01 -0.24430589502E+01  0.40042482558E+01  0.12700000000E+01 0. -1.
<mgrwt>
<rscale>  0 0.31726120E+01</rscale>
<asrwt>0</asrwt>
<pdfrwt beam="1">0</pdfrwt>
<pdfrwt beam="2">0</pdfrwt>
<totfact> 0.45111930E+11</totfact>
</mgrwt>
</event>
<event>
 4    1  0.1750553E+006  0.3193816E+01  0.7546771E-02  0.2464267E+00
         22   -1    0    0    0    0  0.00000000000E+00  0.00000000000E+00  0.20478823672E+01  0.20478823672E+01  0.00000000000E+00 0.  1.
         22   -1    0    0    0    0 -0.00000000000E+00 -0.00000000000E+00 -0.55775276051E+01  0.55775276051E+01  0.00000000000E+00 0. -1.
          4    1    1    2  501    0  0.29069186192E+01  0.37065754159E+00 -0.51791413775E+00  0.32355367291E+01  0.12700000000E+01 0.  1.
         -4    1    1    2    0  501 -0.29069186192E+01 -0.37065754159E+00 -0.30117311001E+01  0.43898732432E+01  0.12700000000E+01 0. -1.
<mgrwt>
<rscale>  0 0.31938163E+01</rscale>
<asrwt>0</asrwt>
<pdfrwt beam="1">0</pdfrwt>
<pdfrwt beam="2">0</pdfrwt>
<totfact> 0.14015470E+12</totfact>
</mgrwt>
</event>
<event>
 4    1  0.1750553E+006  0.2042817E+01  0.7546771E-02  0.2952410E+00
         22   -1    0    0    0    0  0.00000000000E+00  0.00000000000E+00  0.13764110270E+02  0.13764110270E+02  0.00000000000E+00 0. -1.
         22   -1    0    0    0    0 -0.00000000000E+00 -0.00000000000E+00 -0.32134062157E+01  0.32134062157E+01  0.00000000000E+00 0.  1.
          4    1    1    2  501    0 -0.34822567013E+00 -0.15617101651E+01  0.13353730573E+02  0.13509079169E+02  0.12700000000E+01 0. -1.
         -4    1    1    2    0  501  0.34822567013E+00  0.15617101651E+01 -0.28030265190E+01  0.34684373172E+01  0.12700000000E+01 0.  1.
<mgrwt>
<rscale>  0 0.20428166E+01</rscale>
<asrwt>0</asrwt>
<pdfrwt beam="1">0</pdfrwt>
<pdfrwt beam="2">0</pdfrwt>
<totfact> 0.27911628E+11</totfact>
</mgrwt>
</event>
<event>
 4    1  0.1750553E+006  0.6806306E+01  0.7546771E-02  0.1954125E+00
         22   -1    0    0    0    0  0.00000000000E+00  0.00000000000E+00  0.28715088316E+02  0.28715088316E+02  0.00000000000E+00 0. -1.
         22   -1    0    0    0    0 -0.00000000000E+00 -0.00000000000E+00 -0.21362664294E+01  0.21362664294E+01  0.00000000000E+00 0.  1.
          4    1    1    2  501    0 -0.60075924592E+01  0.29362781001E+01  0.20921740942E+02  0.22001023618E+02  0.12700000000E+01 0. -1.
         -4    1    1    2    0  501  0.60075924592E+01 -0.29362781001E+01  0.56570809451E+01  0.88503311269E+01  0.12700000000E+01 0.  1.
<mgrwt>
<rscale>  0 0.68063056E+01</rscale>
<asrwt>0</asrwt>
<pdfrwt beam="1">0</pdfrwt>
<pdfrwt beam="2">0</pdfrwt>
<totfact> 0.17946698E+11</totfact>
</mgrwt>
</event>
<event>
 4    1  0.1750553E+006  0.2757529E+01  0.7546771E-02  0.2604842E+00
         22   -1    0    0    0    0  0.00000000000E+00  0.00000000000E+00  0.23435255867E+02  0.23435255867E+02  0.00000000000E+00 0. -1.
         22   -1    0    0    0    0 -0.00000000000E+00 -0.00000000000E+00 -0.54271968104E+00  0.54271968104E+00  0.00000000000E+00 0.  1.
          4    1    1    2  501    0 -0.24476367675E+01 -0.11918042382E-01  0.19049084428E+02  0.19247638436E+02  0.12700000000E+01 0. -1.
         -4    1    1    2    0  501  0.24476367675E+01  0.11918042382E-01  0.38434517578E+01  0.47303371127E+01  0.12700000000E+01 0.  1.
<mgrwt>
<rscale>  0 0.27575293E+01</rscale>
<asrwt>0</asrwt>
<pdfrwt beam="1">0</pdfrwt>
<pdfrwt beam="2">0</pdfrwt>
<totfact> 0.11123424E+12</totfact>
</mgrwt>
</event>
<event>
 4    1  0.1750553E+006  0.2139608E+01  0.7546771E-02  0.2892467E+00
         22   -1    0    0    0    0  0.00000000000E+00  0.00000000000E+00  0.47676992914E+00  0.47676992914E+00  0.00000000000E+00 0. -1.
         22   -1    0    0    0    0 -0.00000000000E+00 -0.00000000000E+00 -0.10529695919E+02  0.10529695919E+02  0.00000000000E+00 0. -1.
          4    1    1    2  501    0 -0.15670477167E-01 -0.17218531531E+01 -0.66599779686E+01  0.69952291161E+01  0.12700000000E+01 0. -1.
         -4    1    1    2    0  501  0.15670477167E-01  0.17218531531E+01 -0.33929480208E+01  0.40112367316E+01  0.12700000000E+01 0. -1.
<mgrwt>
<rscale>  0 0.21396083E+01</rscale>
<asrwt>0</asrwt>
<pdfrwt beam="1">0</pdfrwt>
<pdfrwt beam="2">0</pdfrwt>
<totfact> 0.34549359E+12</totfact>
</mgrwt>
</event>
<event>
 4    1  0.1750553E+006  0.3024883E+01  0.7546771E-02  0.2514375E+00
         22   -1    0    0    0    0  0.00000000000E+00  0.00000000000E+00  0.24851689354E+01  0.24851689354E+01  0.00000000000E+00 0.  1.
         22   -1    0    0    0    0 -0.00000000000E+00 -0.00000000000E+00 -0.11877413065E+02  0.11877413065E+02  0.00000000000E+00 0. -1.
          4    1    1    2  501    0 -0.96866895288E+00  0.25687926313E+01  0.12691753825E+01  0.32803538337E+01  0.12700000000E+01 0.  1.
         -4    1    1    2    0  501  0.96866895288E+00 -0.25687926313E+01 -0.10661419512E+02  0.11082228167E+02  0.12700000000E+01 0. -1.
<mgrwt>
<rscale>  0 0.30248827E+01</rscale>
<asrwt>0</asrwt>
<pdfrwt beam="1">0</pdfrwt>
<pdfrwt beam="2">0</pdfrwt>
<totfact> 0.45113168E+11</totfact>
</mgrwt>
</event>
<event>
 4    1  0.1750553E+006  0.2087336E+01  0.7546771E-02  0.2924169E+00
         22   -1    0    0    0    0  0.00000000000E+00  0.00000000000E+00  0.70137875319E+01  0.70137875319E+01  0.00000000000E+00 0. -1.
         22   -1    0    0    0    0 -0.00000000000E+00 -0.00000000000E+00 -0.10533474685E+01  0.10533474685E+01  0.00000000000E+00 0.  1.
          4    1    1    2  501    0 -0.68807384472E+00 -0.15068599085E+01  0.55637823663E+01  0.59424444987E+01  0.12700000000E+01 0.  1.
         -4    1    1    2    0  501  0.68807384472E+00  0.15068599085E+01  0.39665769704E+00  0.21246905017E+01  0.12700000000E+01 0. -1.
<mgrwt>
<rscale>  0 0.20873362E+01</rscale>
<asrwt>0</asrwt>
<pdfrwt beam="1">0</pdfrwt>
<pdfrwt beam="2">0</pdfrwt>
<totfact> 0.22912920E+12</totfact>
</mgrwt>
</event>
<event>
 4    1  0.1750553E+006  0.4339354E+01  0.7546771E-02  0.2216768E+00
         22   -1    0    0    0    0  0.00000000000E+00  0.00000000000E+00  0.71644177507E+01  0.71644177507E+01  0.00000000000E+00 0.  1.
         22   -1    0    0    0    0 -0.00000000000E+00 -0.00000000000E+00 -0.28168009908E+01  0.28168009908E+01  0.00000000000E+00 0. -1.
          4    1    1    2  501    0  0.42280745504E+00 -0.41277504431E+01  0.88267117195E+00  0.44282161490E+01  0.12700000000E+01 0. -1.
         -4    1    1    2    0  501 -0.42280745504E+00  0.41277504431E+01  0.34649455879E+01  0.55530025925E+01  0.12700000000E+01 0.  1.
<mgrwt>
<rscale>  0 0.43393536E+01</rscale>
<asrwt>0</asrwt>
<pdfrwt beam="1">0</pdfrwt>
<pdfrwt beam="2">0</pdfrwt>
<totfact> 0.71788355E+11</totfact>
</mgrwt>
</event>
<event>
 4    1  0.1750553E+006  0.2643994E+01  0.7546771E-02  0.2648261E+00
         22   -1    0    0    0    0  0.00000000000E+00  0.00000000000E+00  0.13927780519E+01  0.13927780519E+01  0.00000000000E+00 0. -1.
         22   -1    0    0    0    0 -0.00000000000E+00 -0.00000000000E+00 -0.53834280098E+01  0.53834280098E+01  0.00000000000E+00 0.  1.
          4    1    1    2  501    0 -0.13857943245E+01  0.18594030880E+01 -0.11141095768E+01  0.28691367870E+01  0.12700000000E+01 0. -1.
         -4    1    1    2    0  501  0.13857943245E+01 -0.18594030880E+01 -0.28765403811E+01  0.39070692747E+01  0.12700000000E+01 0.  1.
<mgrwt>
<rscale>  0 0.26439943E+01</rscale>
<asrwt>0</asrwt>
<pdfrwt beam="1">0</pdfrwt>
<pdfrwt beam="2">0</pdfrwt>
<totfact> 0.22801902E+12</totfact>
</mgrwt>
</event>
<event>
 4    1  0.1750553E+006  0.2683988E+01  0.7546771E-02  0.2632583E+00
         22   -1    0    0    0    0  0.00000000000E+00  0.00000000000E+00  0.53541277344E+01  0.53541277344E+01  0.00000000000E+00 0. -1.
         22   -1    0    0    0    0 -0.00000000000E+00 -0.00000000000E+00 -0.25118465346E+01  0.25118465346E+01  0.00000000000E+00 0. -1.
          4    1    1    2  501    0 -0.23623361129E+01 -0.10128577579E+00  0.41012117191E+01  0.49014006451E+01  0.12700000000E+01 0. -1.
         -4    1    1    2    0  501  0.23623361129E+01  0.10128577579E+00 -0.12589305193E+01  0.29645736239E+01  0.12700000000E+01 0. -1.
<mgrwt>
<rscale>  0 0.26839878E+01</rscale>
<asrwt>0</asrwt>
<pdfrwt beam="1">0</pdfrwt>
<pdfrwt beam="2">0</pdfrwt>
<totfact> 0.11607545E+12</totfact>
</mgrwt>
</event>
<event>
 4    1  0.1750553E+006  0.4090346E+01  0.7546771E-02  0.2260350E+00
         22   -1    0    0    0    0  0.00000000000E+00  0.00000000000E+00  0.79482261056E+02  0.79482261056E+02  0.00000000000E+00 0. -1.
         22   -1    0    0    0    0 -0.00000000000E+00 -0.00000000000E+00 -0.21078875275E+00  0.21078875275E+00  0.00000000000E+00 0.  1.
          4    1    1    2  501    0  0.35531330042E+01  0.15790100245E+01  0.38158085919E+02  0.38376691465E+02  0.12700000000E+01 0.  1.
         -4    1    1    2    0  501 -0.35531330042E+01 -0.15790100245E+01  0.41113386385E+02  0.41316358344E+02  0.12700000000E+01 0. -1.
<mgrwt>
<rscale>  0 0.40903456E+01</rscale>
<asrwt>0</asrwt>
<pdfrwt beam="1">0</pdfrwt>
<pdfrwt beam="2">0</pdfrwt>
<totfact> 0.65119008E+11</totfact>
</mgrwt>
</event>
<event>
 4    1  0.1750553E+006  0.2270959E+01  0.7546771E-02  0.2819016E+00
         22   -1    0    0    0    0  0.00000000000E+00  0.00000000000E+00  0.54705841723E+00  0.54705841723E+00  0.00000000000E+00 0. -1.
         22   -1    0    0    0    0 -0.00000000000E+00 -0.00000000000E+00 -0.23091750795E+02  0.23091750795E+02  0.00000000000E+00 0.  1.
          4    1    1    2  501    0  0.15774443399E+01 -0.10276298617E+01 -0.21802476901E+01  0.31481317901E+01  0.12700000000E+01 0. -1.
         -4    1    1    2    0  501 -0.15774443399E+01  0.10276298617E+01 -0.20364444687E+02  0.20490677422E+02  0.12700000000E+01 0.  1.
<mgrwt>
<rscale>  0 0.22709588E+01</rscale>
<asrwt>0</asrwt>
<pdfrwt beam="1">0</pdfrwt>
<pdfrwt beam="2">0</pdfrwt>
<totfact> 0.11229648E+12</totfact>
</mgrwt>
</event>
<event>
 4    1  0.1750553E+006  0.2351923E+01  0.7546771E-02  0.2777645E+00
         22   -1    0    0    0    0  0.00000000000E+00  0.00000000000E+00  0.13438512869E+01  0.13438512869E+01  0.00000000000E+00 0. -1.
         22   -1    0    0    0    0 -0.00000000000E+00 -0.00000000000E+00 -0.20752332881E+02  0.20752332881E+02  0.00000000000E+00 0. -1.
          4    1    1    2  501    0 -0.10734934092E+00  0.19766426263E+01  0.18767052246E+00  0.23593982661E+01  0.12700000000E+01 0. -1.
         -4    1    1    2    0  501  0.10734934092E+00 -0.19766426263E+01 -0.19596152117E+02  0.19736785902E+02  0.12700000000E+01 0. -1.
<mgrwt>
<rscale>  0 0.23519226E+01</rscale>
<asrwt>0</asrwt>
<pdfrwt beam="1">0</pdfrwt>
<pdfrwt beam="2">0</pdfrwt>
<totfact> 0.46117738E+11</totfact>
</mgrwt>
</event>
<event>
 4    1  0.1750553E+006  0.2455534E+01  0.7546771E-02  0.2728464E+00
         22   -1    0    0    0    0  0.00000000000E+00  0.00000000000E+00  0.10998173875E+02  0.10998173875E+02  0.00000000000E+00 0.  1.
         22   -1    0    0    0    0 -0.00000000000E+00 -0.00000000000E+00 -0.67139562729E+00  0.67139562729E+00  0.00000000000E+00 0. -1.
          4    1    1    2  501    0 -0.12063069773E+01 -0.17209221459E+01  0.26644193782E+01  0.36233658632E+01  0.12700000000E+01 0. -1.
         -4    1    1    2    0  501  0.12063069773E+01  0.17209221459E+01  0.76623588692E+01  0.80462036388E+01  0.12700000000E+01 0.  1.
<mgrwt>
<rscale>  0 0.24555345E+01</rscale>
<asrwt>0</asrwt>
<pdfrwt beam="1">0</pdfrwt>
<pdfrwt beam="2">0</pdfrwt>
<totfact> 0.22248881E+12</totfact>
</mgrwt>
</event>
<event>
 4    1  0.1750553E+006  0.2055117E+01  0.7546771E-02  0.2944488E+00
         22   -1    0    0    0    0  0.00000000000E+00  0.00000000000E+00  0.13846278461E+02  0.13846278461E+02  0.00000000000E+00 0. -1.
         22   -1    0    0    0    0 -0.00000000000E+00 -0.00000000000E+00 -0.34167850154E+00  0.34167850154E+00  0.00000000000E+00 0.  1.
          4    1    1    2  501    0  0.64176918971E+00 -0.14828147648E+01  0.90756732716E+01  0.93054474719E+01  0.12700000000E+01 0. -1.
         -4    1    1    2    0  501 -0.64176918971E+00  0.14828147648E+01  0.44289266878E+01  0.48825094906E+01  0.12700000000E+01 0.  1.
<mgrwt>
<rscale>  0 0.20551173E+01</rscale>
<asrwt>0</asrwt>
<pdfrwt beam="1">0</pdfrwt>
<pdfrwt beam="2">0</pdfrwt>
<totfact> 0.35997806E+12</totfact>
</mgrwt>
</event>
<event>
 4    1  0.1750553E+006  0.2806780E+01  0.7546771E-02  0.2587007E+00
         22   -1    0    0    0    0  0.00000000000E+00  0.00000000000E+00  0.71872798135E+00  0.71872798135E+00  0.00000000000E+00 0. -1.
         22   -1    0    0    0    0 -0.00000000000E+00 -0.00000000000E+00 -0.22165236863E+02  0.22165236863E+02  0.00000000000E+00 0. -1.
          4    1    1    2  501    0 -0.13220388084E+01  0.21253998656E+01 -0.25882963984E+01  0.38180216665E+01  0.12700000000E+01 0. -1.
         -4    1    1    2    0  501  0.13220388084E+01 -0.21253998656E+01 -0.18858212483E+02  0.19065943178E+02  0.12700000000E+01 0. -1.
<mgrwt>
<rscale>  0 0.28067795E+01</rscale>
<asrwt>0</asrwt>
<pdfrwt beam="1">0</pdfrwt>
<pdfrwt beam="2">0</pdfrwt>
<totfact> 0.86773779E+11</totfact>
</mgrwt>
</event>
<event>
 4    1  0.1750553E+006  0.2085020E+01  0.7546771E-02  0.2925609E+00
         22   -1    0    0    0    0  0.00000000000E+00  0.00000000000E+00  0.17232286474E+00  0.17232286474E+00  0.00000000000E+00 0.  1.
         22   -1    0    0    0    0 -0.00000000000E+00 -0.00000000000E+00 -0.39621987635E+02  0.39621987635E+02  0.00000000000E+00 0.  1.
          4    1    1    2  501    0 -0.16426874830E+01  0.18969820028E+00 -0.77321006367E+01  0.80082886955E+01  0.12700000000E+01 0.  1.
         -4    1    1    2    0  501  0.16426874830E+01 -0.18969820028E+00 -0.31717564133E+02  0.31786021804E+02  0.12700000000E+01 0.  1.
<mgrwt>
<rscale>  0 0.20850198E+01</rscale>
<asrwt>0</asrwt>
<pdfrwt beam="1">0</pdfrwt>
<pdfrwt beam="2">0</pdfrwt>
<totfact> 0.20608406E+12</totfact>
</mgrwt>
</event>
<event>
 4    1  0.1750553E+006  0.2406166E+01  0.7546771E-02  0.2751402E+00
         22   -1    0    0    0    0  0.00000000000E+00  0.00000000000E+00  0.15305944290E+01  0.15305944290E+01  0.00000000000E+00 0.  1.
         22   -1    0    0    0    0 -0.00000000000E+00 -0.00000000000E+00 -0.41533499551E+01  0.41533499551E+01  0.00000000000E+00 0. -1.
          4    1    1    2  501    0 -0.20348409089E+01 -0.19015360025E+00 -0.46228037128E+00  0.24501712303E+01  0.12700000000E+01 0.  1.
         -4    1    1    2    0  501  0.20348409089E+01  0.19015360025E+00 -0.21604751548E+01  0.32337731538E+01  0.12700000000E+01 0. -1.
<mgrwt>
<rscale>  0 0.24061662E+01</rscale>
<asrwt>0</asrwt>
<pdfrwt beam="1">0</pdfrwt>
<pdfrwt beam="2">0</pdfrwt>
<totfact> 0.27798458E+12</totfact>
</mgrwt>
</event>
<event>
 4    1  0.1750553E+006  0.2171890E+01  0.7546771E-02  0.2873625E+00
         22   -1    0    0    0    0  0.00000000000E+00  0.00000000000E+00  0.11342587552E+01  0.11342587552E+01  0.00000000000E+00 0.  1.
         22   -1    0    0    0    0 -0.00000000000E+00 -0.00000000000E+00 -0.17035278905E+02  0.17035278905E+02  0.00000000000E+00 0. -1.
          4    1    1    2  501    0  0.12102405189E+01 -0.12804394389E+01 -0.52120855643E-01  0.21725155589E+01  0.12700000000E+01 0.  1.
         -4    1    1    2    0  501 -0.12102405189E+01  0.12804394389E+01 -0.15848899295E+02  0.15997022102E+02  0.12700000000E+01 0. -1.
<mgrwt>
<rscale>  0 0.21718903E+01</rscale>
<asrwt>0</asrwt>
<pdfrwt beam="1">0</pdfrwt>
<pdfrwt beam="2">0</pdfrwt>
<totfact> 0.71588563E+11</totfact>
</mgrwt>
</event>
<event>
 4    1  0.1750553E+006  0.2545688E+01  0.7546771E-02  0.2688724E+00
         22   -1    0    0    0    0  0.00000000000E+00  0.00000000000E+00  0.26884347572E+01  0.26884347572E+01  0.00000000000E+00 0.  1.
         22   -1    0    0    0    0 -0.00000000000E+00 -0.00000000000E+00 -0.57640280692E+01  0.57640280692E+01  0.00000000000E+00 0. -1.
          4    1    1    2  501    0 -0.52082421671E+00 -0.21439139892E+01  0.16857942713E+01  0.30532650364E+01  0.12700000000E+01 0.  1.
         -4    1    1    2    0  501  0.52082421671E+00  0.21439139892E+01 -0.47613875832E+01  0.53991977900E+01  0.12700000000E+01 0. -1.
<mgrwt>
<rscale>  0 0.25456875E+01</rscale>
<asrwt>0</asrwt>
<pdfrwt beam="1">0</pdfrwt>
<pdfrwt beam="2">0</pdfrwt>
<totfact> 0.98250755E+11</totfact>
</mgrwt>
</event>
<event>
 4    1  0.1750553E+006  0.2666622E+01  0.7546771E-02  0.2639338E+00
         22   -1    0    0    0    0  0.00000000000E+00  0.00000000000E+00  0.71802547168E+01  0.71802547168E+01  0.00000000000E+00 0.  1.
         22   -1    0    0    0    0 -0.00000000000E+00 -0.00000000000E+00 -0.20973122278E+01  0.20973122278E+01  0.00000000000E+00 0.  1.
          4    1    1    2  501    0  0.20093181961E+01  0.12085582693E+01  0.59115611451E+01  0.64851698417E+01  0.12700000000E+01 0.  1.
         -4    1    1    2    0  501 -0.20093181961E+01 -0.12085582693E+01 -0.82861865604E+00  0.27923971030E+01  0.12700000000E+01 0.  1.
<mgrwt>
<rscale>  0 0.26666220E+01</rscale>
<asrwt>0</asrwt>
<pdfrwt beam="1">0</pdfrwt>
<pdfrwt beam="2">0</pdfrwt>
<totfact> 0.10087931E+12</totfact>
</mgrwt>
</event>
<event>
 4    1  0.1750553E+006  0.2336439E+01  0.7546771E-02  0.2785347E+00
         22   -1    0    0    0    0  0.00000000000E+00  0.00000000000E+00  0.13983252561E+02  0.13983252561E+02  0.00000000000E+00 0.  1.
         22   -1    0    0    0    0 -0.00000000000E+00 -0.00000000000E+00 -0.10467673280E+01  0.10467673280E+01  0.00000000000E+00 0. -1.
          4    1    1    2  501    0 -0.16972037780E+00  0.19537766099E+01  0.12419115165E+02  0.12636984195E+02  0.12700000000E+01 0.  1.
         -4    1    1    2    0  501  0.16972037780E+00 -0.19537766099E+01  0.51737006803E+00  0.23930356946E+01  0.12700000000E+01 0. -1.
<mgrwt>
<rscale>  0 0.23364392E+01</rscale>
<asrwt>0</asrwt>
<pdfrwt beam="1">0</pdfrwt>
<pdfrwt beam="2">0</pdfrwt>
<totfact> 0.10008712E+12</totfact>
</mgrwt>
</event>
<event>
 4    1  0.1750553E+006  0.2739540E+01  0.7546771E-02  0.2611502E+00
         22   -1    0    0    0    0  0.00000000000E+00  0.00000000000E+00  0.10614302392E+01  0.10614302392E+01  0.00000000000E+00 0.  1.
         22   -1    0    0    0    0 -0.00000000000E+00 -0.00000000000E+00 -0.10232502795E+02  0.10232502795E+02  0.00000000000E+00 0.  1.
          4    1    1    2  501    0  0.45210111657E+00  0.23849070270E+01 -0.14465441057E+01  0.30979939956E+01  0.12700000000E+01 0.  1.
         -4    1    1    2    0  501 -0.45210111657E+00 -0.23849070270E+01 -0.77245284506E+01  0.81959390390E+01  0.12700000000E+01 0.  1.
<mgrwt>
<rscale>  0 0.27395396E+01</rscale>
<asrwt>0</asrwt>
<pdfrwt beam="1">0</pdfrwt>
<pdfrwt beam="2">0</pdfrwt>
<totfact> 0.14416206E+12</totfact>
</mgrwt>
</event>
<event>
 4    1  0.1750553E+006  0.2347920E+01  0.7546771E-02  0.2779627E+00
         22   -1    0    0    0    0  0.00000000000E+00  0.00000000000E+00  0.71699125248E+00  0.71699125248E+00  0.00000000000E+00 0.  1.
         22   -1    0    0    0    0 -0.00000000000E+00 -0.00000000000E+00 -0.79933477936E+01  0.79933477936E+01  0.00000000000E+00 0. -1.
          4    1    1    2  501    0  0.17266275055E+01  0.95842947785E+00 -0.27879397870E+01  0.36449057413E+01  0.12700000000E+01 0. -1.
         -4    1    1    2    0  501 -0.17266275055E+01 -0.95842947785E+00 -0.44884167541E+01  0.50654333048E+01  0.12700000000E+01 0.  1.
<mgrwt>
<rscale>  0 0.23479203E+01</rscale>
<asrwt>0</asrwt>
<pdfrwt beam="1">0</pdfrwt>
<pdfrwt beam="2">0</pdfrwt>
<totfact> 0.30363819E+12</totfact>
</mgrwt>
</event>
<event>
 4    1  0.1750553E+006  0.4686776E+01  0.7546771E-02  0.2162543E+00
         22   -1    0    0    0    0  0.00000000000E+00  0.00000000000E+00  0.18100263062E+02  0.18100263062E+02  0.00000000000E+00 0.  1.
         22   -1    0    0    0    0 -0.00000000000E+00 -0.00000000000E+00 -0.26324817572E+01  0.26324817572E+01  0.00000000000E+00 0. -1.
          4    1    1    2  501    0  0.10682953609E+01  0.43831165883E+01  0.15344552203E+02  0.16044349421E+02  0.12700000000E+01 0.  1.
         -4    1    1    2    0  501 -0.10682953609E+01 -0.43831165883E+01  0.12322910170E+00  0.46883953989E+01  0.12700000000E+01 0. -1.
<mgrwt>
<rscale>  0 0.46867757E+01</rscale>
<asrwt>0</asrwt>
<pdfrwt beam="1">0</pdfrwt>
<pdfrwt beam="2">0</pdfrwt>
<totfact> 0.25132356E+11</totfact>
</mgrwt>
</event>
<event>
 4    1  0.1750553E+006  0.4661849E+01  0.7546771E-02  0.2166208E+00
         22   -1    0    0    0    0  0.00000000000E+00  0.00000000000E+00  0.19442592222E+02  0.19442592222E+02  0.00000000000E+00 0.  1.
         22   -1    0    0    0    0 -0.00000000000E+00 -0.00000000000E+00 -0.12500132860E+01  0.12500132860E+01  0.00000000000E+00 0. -1.
          4    1    1    2  501    0 -0.34841188539E+01 -0.28250407428E+01  0.12461196246E+02  0.13304670281E+02  0.12700000000E+01 0.  1.
         -4    1    1    2    0  501  0.34841188539E+01  0.28250407428E+01  0.57313826892E+01  0.73879352269E+01  0.12700000000E+01 0. -1.
<mgrwt>
<rscale>  0 0.46618494E+01</rscale>
<asrwt>0</asrwt>
<pdfrwt beam="1">0</pdfrwt>
<pdfrwt beam="2">0</pdfrwt>
<totfact> 0.54359193E+11</totfact>
</mgrwt>
</event>
<event>
 4    1  0.1750553E+006  0.2548855E+01  0.7546771E-02  0.2687376E+00
         22   -1    0    0    0    0  0.00000000000E+00  0.00000000000E+00  0.91723293950E+01  0.91723293950E+01  0.00000000000E+00 0. -1.
         22   -1    0    0    0    0 -0.00000000000E+00 -0.00000000000E+00 -0.14184587049E+01  0.14184587049E+01  0.00000000000E+00 0. -1.
          4    1    1    2  501    0 -0.11034168629E+00 -0.22071668778E+01  0.76238256230E+01  0.80386179187E+01  0.12700000000E+01 0. -1.
         -4    1    1    2    0  501  0.11034168629E+00  0.22071668778E+01  0.13004506712E+00  0.25521701812E+01  0.12700000000E+01 0. -1.
<mgrwt>
<rscale>  0 0.25488548E+01</rscale>
<asrwt>0</asrwt>
<pdfrwt beam="1">0</pdfrwt>
<pdfrwt beam="2">0</pdfrwt>
<totfact> 0.11802168E+12</totfact>
</mgrwt>
</event>
<event>
 4    1  0.1750553E+006  0.2511362E+01  0.7546771E-02  0.2703542E+00
         22   -1    0    0    0    0  0.00000000000E+00  0.00000000000E+00  0.11406668280E+02  0.11406668280E+02  0.00000000000E+00 0. -1.
         22   -1    0    0    0    0 -0.00000000000E+00 -0.00000000000E+00 -0.94349382460E+00  0.94349382460E+00  0.00000000000E+00 0.  1.
          4    1    1    2  501    0 -0.21007378413E+01  0.53003968299E+00  0.92046582686E+01  0.95411045160E+01  0.12700000000E+01 0. -1.
         -4    1    1    2    0  501  0.21007378413E+01 -0.53003968299E+00  0.12585161867E+01  0.28090575885E+01  0.12700000000E+01 0.  1.
<mgrwt>
<rscale>  0 0.25113625E+01</rscale>
<asrwt>0</asrwt>
<pdfrwt beam="1">0</pdfrwt>
<pdfrwt beam="2">0</pdfrwt>
<totfact> 0.14453341E+12</totfact>
</mgrwt>
</event>
<event>
 4    1  0.1750553E+006  0.2503081E+01  0.7546771E-02  0.2707173E+00
         22   -1    0    0    0    0  0.00000000000E+00  0.00000000000E+00  0.19551751142E+01  0.19551751142E+01  0.00000000000E+00 0. -1.
         22   -1    0    0    0    0 -0.00000000000E+00 -0.00000000000E+00 -0.42157762682E+01  0.42157762682E+01  0.00000000000E+00 0.  1.
          4    1    1    2  501    0  0.17031788860E+01 -0.13235167485E+01  0.38086510437E+00  0.25318912159E+01  0.12700000000E+01 0. -1.
         -4    1    1    2    0  501 -0.17031788860E+01  0.13235167485E+01 -0.26414662583E+01  0.36390601665E+01  0.12700000000E+01 0.  1.
<mgrwt>
<rscale>  0 0.25030811E+01</rscale>
<asrwt>0</asrwt>
<pdfrwt beam="1">0</pdfrwt>
<pdfrwt beam="2">0</pdfrwt>
<totfact> 0.20591893E+12</totfact>
</mgrwt>
</event>
<event>
 4    1  0.1750553E+006  0.2380475E+01  0.7546771E-02  0.2763691E+00
         22   -1    0    0    0    0  0.00000000000E+00  0.00000000000E+00  0.65482813008E+00  0.65482813008E+00  0.00000000000E+00 0.  1.
         22   -1    0    0    0    0 -0.00000000000E+00 -0.00000000000E+00 -0.15504074429E+02  0.15504074429E+02  0.00000000000E+00 0. -1.
          4    1    1    2  501    0  0.15816367079E+01 -0.12458684683E+01 -0.20540921757E+01  0.31441942660E+01  0.12700000000E+01 0. -1.
         -4    1    1    2    0  501 -0.15816367079E+01  0.12458684683E+01 -0.12795154123E+02  0.13014708293E+02  0.12700000000E+01 0. -1.
<mgrwt>
<rscale>  0 0.23804754E+01</rscale>
<asrwt>0</asrwt>
<pdfrwt beam="1">0</pdfrwt>
<pdfrwt beam="2">0</pdfrwt>
<totfact> 0.15036424E+12</totfact>
</mgrwt>
</event>
<event>
 4    1  0.1750553E+006  0.3357375E+01  0.7546771E-02  0.2420036E+00
         22   -1    0    0    0    0  0.00000000000E+00  0.00000000000E+00  0.30984481882E+02  0.30984481882E+02  0.00000000000E+00 0.  1.
         22   -1    0    0    0    0 -0.00000000000E+00 -0.00000000000E+00 -0.69743699002E+00  0.69743699002E+00  0.00000000000E+00 0. -1.
          4    1    1    2  501    0  0.20477245094E+01  0.23379240351E+01  0.26099978029E+02  0.26315030260E+02  0.12700000000E+01 0.  1.
         -4    1    1    2    0  501 -0.20477245094E+01 -0.23379240351E+01  0.41870668627E+01  0.53668886119E+01  0.12700000000E+01 0. -1.
<mgrwt>
<rscale>  0 0.33573746E+01</rscale>
<asrwt>0</asrwt>
<pdfrwt beam="1">0</pdfrwt>
<pdfrwt beam="2">0</pdfrwt>
<totfact> 0.58780035E+11</totfact>
</mgrwt>
</event>
<event>
 4    1  0.1750553E+006  0.3176049E+01  0.7546771E-02  0.2469313E+00
         22   -1    0    0    0    0  0.00000000000E+00  0.00000000000E+00  0.44901343711E+02  0.44901343711E+02  0.00000000000E+00 0.  1.
         22   -1    0    0    0    0 -0.00000000000E+00 -0.00000000000E+00 -0.22479923282E+00  0.22479923282E+00  0.00000000000E+00 0. -1.
          4    1    1    2  501    0  0.28665153443E+01  0.50742290946E+00  0.21765730086E+02  0.21996233641E+02  0.12700000000E+01 0.  1.
         -4    1    1    2    0  501 -0.28665153443E+01 -0.50742290946E+00  0.22910814392E+02  0.23129909303E+02  0.12700000000E+01 0. -1.
<mgrwt>
<rscale>  0 0.31760492E+01</rscale>
<asrwt>0</asrwt>
<pdfrwt beam="1">0</pdfrwt>
<pdfrwt beam="2">0</pdfrwt>
<totfact> 0.13018523E+12</totfact>
</mgrwt>
</event>
<event>
 4    1  0.1750553E+006  0.2438249E+01  0.7546771E-02  0.2736396E+00
         22   -1    0    0    0    0  0.00000000000E+00  0.00000000000E+00  0.15786873250E+02  0.15786873250E+02  0.00000000000E+00 0.  1.
         22   -1    0    0    0    0 -0.00000000000E+00 -0.00000000000E+00 -0.21429388853E+01  0.21429388853E+01  0.00000000000E+00 0. -1.
          4    1    1    2  501    0  0.20491398006E+01 -0.36494282264E+00  0.14961135700E+02  0.15158517032E+02  0.12700000000E+01 0.  1.
         -4    1    1    2    0  501 -0.20491398006E+01  0.36494282264E+00 -0.13172013357E+01  0.27712951025E+01  0.12700000000E+01 0. -1.
<mgrwt>
<rscale>  0 0.24382488E+01</rscale>
<asrwt>0</asrwt>
<pdfrwt beam="1">0</pdfrwt>
<pdfrwt beam="2">0</pdfrwt>
<totfact> 0.37801304E+11</totfact>
</mgrwt>
</event>
<event>
 4    1  0.1750553E+006  0.2804134E+01  0.7546771E-02  0.2587950E+00
         22   -1    0    0    0    0  0.00000000000E+00  0.00000000000E+00  0.62882868232E+00  0.62882868232E+00  0.00000000000E+00 0. -1.
         22   -1    0    0    0    0 -0.00000000000E+00 -0.00000000000E+00 -0.19444237632E+02  0.19444237632E+02  0.00000000000E+00 0.  1.
          4    1    1    2  501    0 -0.24024582336E+01 -0.69170935652E+00 -0.34117154747E+01  0.44162166929E+01  0.12700000000E+01 0. -1.
         -4    1    1    2    0  501  0.24024582336E+01  0.69170935652E+00 -0.15403693475E+02  0.15656849621E+02  0.12700000000E+01 0.  1.
<mgrwt>
<rscale>  0 0.28041340E+01</rscale>
<asrwt>0</asrwt>
<pdfrwt beam="1">0</pdfrwt>
<pdfrwt beam="2">0</pdfrwt>
<totfact> 0.11892717E+12</totfact>
</mgrwt>
</event>
<event>
 4    1  0.1750553E+006  0.2318219E+01  0.7546771E-02  0.2794534E+00
         22   -1    0    0    0    0  0.00000000000E+00  0.00000000000E+00  0.26021118722E+02  0.26021118722E+02  0.00000000000E+00 0.  1.
         22   -1    0    0    0    0 -0.00000000000E+00 -0.00000000000E+00 -0.54202892252E+00  0.54202892252E+00  0.00000000000E+00 0. -1.
          4    1    1    2  501    0  0.93783739287E+00  0.16975566913E+01  0.23188767312E+02  0.23304357256E+02  0.12700000000E+01 0.  1.
         -4    1    1    2    0  501 -0.93783739287E+00 -0.16975566913E+01  0.22903224877E+01  0.32587903881E+01  0.12700000000E+01 0. -1.
<mgrwt>
<rscale>  0 0.23182186E+01</rscale>
<asrwt>0</asrwt>
<pdfrwt beam="1">0</pdfrwt>
<pdfrwt beam="2">0</pdfrwt>
<totfact> 0.97621929E+11</totfact>
</mgrwt>
</event>
<event>
 4    1  0.1750553E+006  0.2591950E+01  0.7546771E-02  0.2669330E+00
         22   -1    0    0    0    0  0.00000000000E+00  0.00000000000E+00  0.17219683239E+02  0.17219683239E+02  0.00000000000E+00 0.  1.
         22   -1    0    0    0    0 -0.00000000000E+00 -0.00000000000E+00 -0.40519091440E+00  0.40519091440E+00  0.00000000000E+00 0. -1.
          4    1    1    2  501    0 -0.65094154060E+00  0.21636963906E+01  0.10105283651E+02  0.10432399754E+02  0.12700000000E+01 0.  1.
         -4    1    1    2    0  501  0.65094154060E+00 -0.21636963906E+01  0.67092086732E+01  0.71924743990E+01  0.12700000000E+01 0. -1.
<mgrwt>
<rscale>  0 0.25919504E+01</rscale>
<asrwt>0</asrwt>
<pdfrwt beam="1">0</pdfrwt>
<pdfrwt beam="2">0</pdfrwt>
<totfact> 0.22718186E+12</totfact>
</mgrwt>
</event>
<event>
 4    1  0.1750553E+006  0.2127042E+01  0.7546771E-02  0.2899950E+00
         22   -1    0    0    0    0  0.00000000000E+00  0.00000000000E+00  0.80905664798E+01  0.80905664798E+01  0.00000000000E+00 0.  1.
         22   -1    0    0    0    0 -0.00000000000E+00 -0.00000000000E+00 -0.58237976590E+00  0.58237976590E+00  0.00000000000E+00 0.  1.
          4    1    1    2  501    0  0.35987283414E+00  0.16679025388E+01  0.46190923329E+01  0.50853044467E+01  0.12700000000E+01 0.  1.
         -4    1    1    2    0  501 -0.35987283414E+00 -0.16679025388E+01  0.28890943810E+01  0.35876417990E+01  0.12700000000E+01 0.  1.
<mgrwt>
<rscale>  0 0.21270419E+01</rscale>
<asrwt>0</asrwt>
<pdfrwt beam="1">0</pdfrwt>
<pdfrwt beam="2">0</pdfrwt>
<totfact> 0.37880005E+12</totfact>
</mgrwt>
</event>
<event>
 4    1  0.1750553E+006  0.2688114E+01  0.7546771E-02  0.2630990E+00
         22   -1    0    0    0    0  0.00000000000E+00  0.00000000000E+00  0.26603867919E+01  0.26603867919E+01  0.00000000000E+00 0. -1.
         22   -1    0    0    0    0 -0.00000000000E+00 -0.00000000000E+00 -0.31871492876E+01  0.31871492876E+01  0.00000000000E+00 0.  1.
          4    1    1    2  501    0  0.14542249435E+01  0.18703703302E+01  0.86060561016E+00  0.28225161425E+01  0.12700000000E+01 0. -1.
         -4    1    1    2    0  501 -0.14542249435E+01 -0.18703703302E+01 -0.13873681058E+01  0.30250199370E+01  0.12700000000E+01 0.  1.
<mgrwt>
<rscale>  0 0.26881137E+01</rscale>
<asrwt>0</asrwt>
<pdfrwt beam="1">0</pdfrwt>
<pdfrwt beam="2">0</pdfrwt>
<totfact> 0.20001155E+12</totfact>
</mgrwt>
</event>
<event>
 4    1  0.1750553E+006  0.2629374E+01  0.7546771E-02  0.2654102E+00
         22   -1    0    0    0    0  0.00000000000E+00  0.00000000000E+00  0.22700623889E+02  0.22700623889E+02  0.00000000000E+00 0. -1.
         22   -1    0    0    0    0 -0.00000000000E+00 -0.00000000000E+00 -0.32049795881E+00  0.32049795881E+00  0.00000000000E+00 0.  1.
          4    1    1    2  501    0 -0.23015141714E+01 -0.61165897933E-01  0.13757242087E+02  0.14006259979E+02  0.12700000000E+01 0. -1.
         -4    1    1    2    0  501  0.23015141714E+01  0.61165897933E-01  0.86228838433E+01  0.90148618694E+01  0.12700000000E+01 0.  1.
<mgrwt>
<rscale>  0 0.26293742E+01</rscale>
<asrwt>0</asrwt>
<pdfrwt beam="1">0</pdfrwt>
<pdfrwt beam="2">0</pdfrwt>
<totfact> 0.20953470E+12</totfact>
</mgrwt>
</event>
<event>
 4    1  0.1750553E+006  0.2057342E+01  0.7546771E-02  0.2943065E+00
         22   -1    0    0    0    0  0.00000000000E+00  0.00000000000E+00  0.12278767580E+01  0.12278767580E+01  0.00000000000E+00 0. -1.
         22   -1    0    0    0    0 -0.00000000000E+00 -0.00000000000E+00 -0.51389200253E+01  0.51389200253E+01  0.00000000000E+00 0. -1.
          4    1    1    2  501    0  0.64360905457E+00  0.14851009585E+01 -0.12898832460E+00  0.20613819297E+01  0.12700000000E+01 0. -1.
         -4    1    1    2    0  501 -0.64360905457E+00 -0.14851009585E+01 -0.37820549427E+01  0.43054148536E+01  0.12700000000E+01 0. -1.
<mgrwt>
<rscale>  0 0.20573423E+01</rscale>
<asrwt>0</asrwt>
<pdfrwt beam="1">0</pdfrwt>
<pdfrwt beam="2">0</pdfrwt>
<totfact> 0.27840355E+12</totfact>
</mgrwt>
</event>
<event>
 4    1  0.1750553E+006  0.2199829E+01  0.7546771E-02  0.2857748E+00
         22   -1    0    0    0    0  0.00000000000E+00  0.00000000000E+00  0.44454038735E+00  0.44454038735E+00  0.00000000000E+00 0. -1.
         22   -1    0    0    0    0 -0.00000000000E+00 -0.00000000000E+00 -0.11071159508E+02  0.11071159508E+02  0.00000000000E+00 0.  1.
          4    1    1    2  501    0 -0.14132469721E+01  0.11086395403E+01 -0.45686044436E+01  0.50706405115E+01  0.12700000000E+01 0.  1.
         -4    1    1    2    0  501  0.14132469721E+01 -0.11086395403E+01 -0.60580146774E+01  0.64450593842E+01  0.12700000000E+01 0. -1.
<mgrwt>
<rscale>  0 0.21998292E+01</rscale>
<asrwt>0</asrwt>
<pdfrwt beam="1">0</pdfrwt>
<pdfrwt beam="2">0</pdfrwt>
<totfact> 0.35179133E+12</totfact>
</mgrwt>
</event>
<event>
 4    1  0.1750553E+006  0.2007124E+01  0.7546771E-02  0.2975935E+00
         22   -1    0    0    0    0  0.00000000000E+00  0.00000000000E+00  0.29100995938E+02  0.29100995938E+02  0.00000000000E+00 0. -1.
         22   -1    0    0    0    0 -0.00000000000E+00 -0.00000000000E+00 -0.14268542052E+00  0.14268542052E+00  0.00000000000E+00 0. -1.
          4    1    1    2  501    0  0.15819961690E-01 -0.15541542800E+01  0.17003315765E+02  0.17121369478E+02  0.12700000000E+01 0. -1.
         -4    1    1    2    0  501 -0.15819961690E-01  0.15541542800E+01  0.11954994752E+02  0.12122311881E+02  0.12700000000E+01 0. -1.
<mgrwt>
<rscale>  0 0.20071238E+01</rscale>
<asrwt>0</asrwt>
<pdfrwt beam="1">0</pdfrwt>
<pdfrwt beam="2">0</pdfrwt>
<totfact> 0.37786003E+12</totfact>
</mgrwt>
</event>
<event>
 4    1  0.1750553E+006  0.2017737E+01  0.7546771E-02  0.2968855E+00
         22   -1    0    0    0    0  0.00000000000E+00  0.00000000000E+00  0.19818740654E+01  0.19818740654E+01  0.00000000000E+00 0.  1.
         22   -1    0    0    0    0 -0.00000000000E+00 -0.00000000000E+00 -0.26677984004E+01  0.26677984004E+01  0.00000000000E+00 0. -1.
          4    1    1    2  501    0  0.11324637359E+01 -0.10843830180E+01  0.77195093136E+00  0.21603631369E+01  0.12700000000E+01 0.  1.
         -4    1    1    2    0  501 -0.11324637359E+01  0.10843830180E+01 -0.14578752663E+01  0.24893093289E+01  0.12700000000E+01 0. -1.
<mgrwt>
<rscale>  0 0.20177365E+01</rscale>
<asrwt>0</asrwt>
<pdfrwt beam="1">0</pdfrwt>
<pdfrwt beam="2">0</pdfrwt>
<totfact> 0.34645524E+12</totfact>
</mgrwt>
</event>
<event>
 4    1  0.1750553E+006  0.2567274E+01  0.7546771E-02  0.2679594E+00
         22   -1    0    0    0    0  0.00000000000E+00  0.00000000000E+00  0.92061921327E+01  0.92061921327E+01  0.00000000000E+00 0.  1.
         22   -1    0    0    0    0 -0.00000000000E+00 -0.00000000000E+00 -0.33625099616E+01  0.33625099616E+01  0.00000000000E+00 0.  1.
          4    1    1    2  501    0 -0.21530479140E+01  0.58513374999E+00  0.84971890804E+01  0.88765488279E+01  0.12700000000E+01 0.  1.
         -4    1    1    2    0  501  0.21530479140E+01 -0.58513374999E+00 -0.26535069092E+01  0.36921532664E+01  0.12700000000E+01 0.  1.
<mgrwt>
<rscale>  0 0.25672742E+01</rscale>
<asrwt>0</asrwt>
<pdfrwt beam="1">0</pdfrwt>
<pdfrwt beam="2">0</pdfrwt>
<totfact> 0.43175630E+11</totfact>
</mgrwt>
</event>
<event>
 4    1  0.1750553E+006  0.2988215E+01  0.7546771E-02  0.2525917E+00
         22   -1    0    0    0    0  0.00000000000E+00  0.00000000000E+00  0.76115304353E+00  0.76115304353E+00  0.00000000000E+00 0. -1.
         22   -1    0    0    0    0 -0.00000000000E+00 -0.00000000000E+00 -0.12834570472E+02  0.12834570472E+02  0.00000000000E+00 0.  1.
          4    1    1    2  501    0  0.59260187323E+00  0.26391958642E+01 -0.40437771911E+01  0.50280777402E+01  0.12700000000E+01 0. -1.
         -4    1    1    2    0  501 -0.59260187323E+00 -0.26391958642E+01 -0.80296402372E+01  0.85676457752E+01  0.12700000000E+01 0.  1.
<mgrwt>
<rscale>  0 0.29882155E+01</rscale>
<asrwt>0</asrwt>
<pdfrwt beam="1">0</pdfrwt>
<pdfrwt beam="2">0</pdfrwt>
<totfact> 0.15984655E+12</totfact>
</mgrwt>
</event>
<event>
 4    1  0.1750553E+006  0.2744738E+01  0.7546771E-02  0.2609569E+00
         22   -1    0    0    0    0  0.00000000000E+00  0.00000000000E+00  0.29423502516E+02  0.29423502516E+02  0.00000000000E+00 0.  1.
         22   -1    0    0    0    0 -0.00000000000E+00 -0.00000000000E+00 -0.26294261333E+00  0.26294261333E+00  0.00000000000E+00 0. -1.
          4    1    1    2  501    0 -0.24141874993E+01 -0.30394978907E+00  0.12175298202E+02  0.12480844244E+02  0.12700000000E+01 0. -1.
         -4    1    1    2    0  501  0.24141874993E+01  0.30394978907E+00  0.16985261701E+02  0.17205600884E+02  0.12700000000E+01 0.  1.
<mgrwt>
<rscale>  0 0.27447380E+01</rscale>
<asrwt>0</asrwt>
<pdfrwt beam="1">0</pdfrwt>
<pdfrwt beam="2">0</pdfrwt>
<totfact> 0.18846670E+12</totfact>
</mgrwt>
</event>
<event>
 4    1  0.1750553E+006  0.2218720E+01  0.7546771E-02  0.2847230E+00
         22   -1    0    0    0    0  0.00000000000E+00  0.00000000000E+00  0.13974193463E+02  0.13974193463E+02  0.00000000000E+00 0. -1.
         22   -1    0    0    0    0 -0.00000000000E+00 -0.00000000000E+00 -0.52174553835E+00  0.52174553835E+00  0.00000000000E+00 0. -1.
          4    1    1    2  501    0  0.24932682892E+00 -0.18021244608E+01  0.10857060334E+02  0.11081447358E+02  0.12700000000E+01 0. -1.
         -4    1    1    2    0  501 -0.24932682892E+00  0.18021244608E+01  0.25953875901E+01  0.34144916434E+01  0.12700000000E+01 0. -1.
<mgrwt>
<rscale>  0 0.22187195E+01</rscale>
<asrwt>0</asrwt>
<pdfrwt beam="1">0</pdfrwt>
<pdfrwt beam="2">0</pdfrwt>
<totfact> 0.22095168E+12</totfact>
</mgrwt>
</event>
<event>
 4    1  0.1750553E+006  0.2089884E+01  0.7546771E-02  0.2922588E+00
         22   -1    0    0    0    0  0.00000000000E+00  0.00000000000E+00  0.30448512728E+02  0.30448512728E+02  0.00000000000E+00 0.  1.
         22   -1    0    0    0    0 -0.00000000000E+00 -0.00000000000E+00 -0.15091462773E+00  0.15091462773E+00  0.00000000000E+00 0.  1.
          4    1    1    2  501    0  0.16540811268E+01  0.13686759347E+00  0.18553145430E+02  0.18670479974E+02  0.12700000000E+01 0.  1.
         -4    1    1    2    0  501 -0.16540811268E+01 -0.13686759347E+00  0.11744452670E+02  0.11928947382E+02  0.12700000000E+01 0.  1.
<mgrwt>
<rscale>  0 0.20898845E+01</rscale>
<asrwt>0</asrwt>
<pdfrwt beam="1">0</pdfrwt>
<pdfrwt beam="2">0</pdfrwt>
<totfact> 0.33514667E+12</totfact>
</mgrwt>
</event>
<event>
 4    1  0.1750553E+006  0.2223735E+01  0.7546771E-02  0.2844467E+00
         22   -1    0    0    0    0  0.00000000000E+00  0.00000000000E+00  0.57344144456E+00  0.57344144456E+00  0.00000000000E+00 0.  1.
         22   -1    0    0    0    0 -0.00000000000E+00 -0.00000000000E+00 -0.16957261188E+02  0.16957261188E+02  0.00000000000E+00 0.  1.
          4    1    1    2  501    0 -0.13622647849E+01  0.12150444321E+01 -0.20470022310E+01  0.30224520592E+01  0.12700000000E+01 0.  1.
         -4    1    1    2    0  501  0.13622647849E+01 -0.12150444321E+01 -0.14336817512E+02  0.14508250573E+02  0.12700000000E+01 0.  1.
<mgrwt>
<rscale>  0 0.22237352E+01</rscale>
<asrwt>0</asrwt>
<pdfrwt beam="1">0</pdfrwt>
<pdfrwt beam="2">0</pdfrwt>
<totfact> 0.15644984E+12</totfact>
</mgrwt>
</event>
<event>
 4    1  0.1750553E+006  0.2019984E+01  0.7546771E-02  0.2967365E+00
         22   -1    0    0    0    0  0.00000000000E+00  0.00000000000E+00  0.38019700250E+01  0.38019700250E+01  0.00000000000E+00 0. -1.
         22   -1    0    0    0    0 -0.00000000000E+00 -0.00000000000E+00 -0.10954853898E+01  0.10954853898E+01  0.00000000000E+00 0. -1.
          4    1    1    2  501    0  0.11751948915E+01 -0.10422822476E+01  0.10041094736E+01  0.22557861494E+01  0.12700000000E+01 0. -1.
         -4    1    1    2    0  501 -0.11751948915E+01  0.10422822476E+01  0.17023751616E+01  0.26416692654E+01  0.12700000000E+01 0. -1.
<mgrwt>
<rscale>  0 0.20199840E+01</rscale>
<asrwt>0</asrwt>
<pdfrwt beam="1">0</pdfrwt>
<pdfrwt beam="2">0</pdfrwt>
<totfact> 0.45270763E+12</totfact>
</mgrwt>
</event>
<event>
 4    1  0.1750553E+006  0.2303653E+01  0.7546771E-02  0.2801978E+00
         22   -1    0    0    0    0  0.00000000000E+00  0.00000000000E+00  0.31978350228E+01  0.31978350228E+01  0.00000000000E+00 0.  1.
         22   -1    0    0    0    0 -0.00000000000E+00 -0.00000000000E+00 -0.30622677469E+01  0.30622677469E+01  0.00000000000E+00 0. -1.
          4    1    1    2  501    0  0.16572755555E+01 -0.97332154429E+00  0.21862535247E+01  0.31759284579E+01  0.12700000000E+01 0.  1.
         -4    1    1    2    0  501 -0.16572755555E+01  0.97332154429E+00 -0.20506862487E+01  0.30841743119E+01  0.12700000000E+01 0. -1.
<mgrwt>
<rscale>  0 0.23036530E+01</rscale>
<asrwt>0</asrwt>
<pdfrwt beam="1">0</pdfrwt>
<pdfrwt beam="2">0</pdfrwt>
<totfact> 0.16906372E+12</totfact>
</mgrwt>
</event>
<event>
 4    1  0.1750553E+006  0.4352908E+01  0.7546771E-02  0.2214517E+00
         22   -1    0    0    0    0  0.00000000000E+00  0.00000000000E+00  0.69019231363E+01  0.69019231363E+01  0.00000000000E+00 0. -1.
         22   -1    0    0    0    0 -0.00000000000E+00 -0.00000000000E+00 -0.52786310790E+01  0.52786310790E+01  0.00000000000E+00 0.  1.
          4    1    1    2  501    0 -0.40559600744E+01 -0.94026415964E+00  0.50307757671E+01  0.66525569245E+01  0.12700000000E+01 0. -1.
         -4    1    1    2    0  501  0.40559600744E+01  0.94026415964E+00 -0.34074837098E+01  0.55279972908E+01  0.12700000000E+01 0.  1.
<mgrwt>
<rscale>  0 0.43529081E+01</rscale>
<asrwt>0</asrwt>
<pdfrwt beam="1">0</pdfrwt>
<pdfrwt beam="2">0</pdfrwt>
<totfact> 0.35870296E+11</totfact>
</mgrwt>
</event>
<event>
 4    1  0.1750553E+006  0.2099775E+01  0.7546771E-02  0.2916486E+00
         22   -1    0    0    0    0  0.00000000000E+00  0.00000000000E+00  0.46478380835E+00  0.46478380835E+00  0.00000000000E+00 0.  1.
         22   -1    0    0    0    0 -0.00000000000E+00 -0.00000000000E+00 -0.22873767541E+02  0.22873767541E+02  0.00000000000E+00 0. -1.
          4    1    1    2  501    0  0.12072934762E+01  0.11569777778E+01 -0.22770900083E+01  0.30974495995E+01  0.12700000000E+01 0.  1.
         -4    1    1    2    0  501 -0.12072934762E+01 -0.11569777778E+01 -0.20131893724E+02  0.20241101750E+02  0.12700000000E+01 0. -1.
<mgrwt>
<rscale>  0 0.20997750E+01</rscale>
<asrwt>0</asrwt>
<pdfrwt beam="1">0</pdfrwt>
<pdfrwt beam="2">0</pdfrwt>
<totfact> 0.13660340E+12</totfact>
</mgrwt>
</event>
<event>
 4    1  0.1750553E+006  0.2238793E+01  0.7546771E-02  0.2836240E+00
         22   -1    0    0    0    0  0.00000000000E+00  0.00000000000E+00  0.21977960097E+01  0.21977960097E+01  0.00000000000E+00 0.  1.
         22   -1    0    0    0    0 -0.00000000000E+00 -0.00000000000E+00 -0.23561793915E+01  0.23561793915E+01  0.00000000000E+00 0. -1.
          4    1    1    2  501    0  0.15485480309E+01 -0.10006463890E+01 -0.48712397844E+00  0.22911752378E+01  0.12700000000E+01 0. -1.
         -4    1    1    2    0  501 -0.15485480309E+01  0.10006463890E+01  0.32874059671E+00  0.22628001634E+01  0.12700000000E+01 0.  1.
<mgrwt>
<rscale>  0 0.22387930E+01</rscale>
<asrwt>0</asrwt>
<pdfrwt beam="1">0</pdfrwt>
<pdfrwt beam="2">0</pdfrwt>
<totfact> 0.35513472E+12</totfact>
</mgrwt>
</event>
<event>
 4    1  0.1750553E+006  0.3730504E+01  0.7546771E-02  0.2331973E+00
         22   -1    0    0    0    0  0.00000000000E+00  0.00000000000E+00  0.15723303008E+02  0.15723303008E+02  0.00000000000E+00 0.  1.
         22   -1    0    0    0    0 -0.00000000000E+00 -0.00000000000E+00 -0.89607762857E+00  0.89607762857E+00  0.00000000000E+00 0. -1.
          4    1    1    2  501    0  0.22012460683E+01  0.27309839149E+01  0.64937686275E+01  0.74890378811E+01  0.12700000000E+01 0.  1.
         -4    1    1    2    0  501 -0.22012460683E+01 -0.27309839149E+01  0.83334567519E+01  0.91303427555E+01  0.12700000000E+01 0.  1.
<mgrwt>
<rscale>  0 0.37305036E+01</rscale>
<asrwt>0</asrwt>
<pdfrwt beam="1">0</pdfrwt>
<pdfrwt beam="2">0</pdfrwt>
<totfact> 0.10346471E+12</totfact>
</mgrwt>
</event>
<event>
 4    1  0.1750553E+006  0.2188472E+01  0.7546771E-02  0.2864155E+00
         22   -1    0    0    0    0  0.00000000000E+00  0.00000000000E+00  0.50230713178E+00  0.50230713178E+00  0.00000000000E+00 0.  1.
         22   -1    0    0    0    0 -0.00000000000E+00 -0.00000000000E+00 -0.12365826569E+02  0.12365826569E+02  0.00000000000E+00 0. -1.
          4    1    1    2  501    0 -0.11407924695E+01 -0.13693432660E+01 -0.28532227152E+01  0.35958710073E+01  0.12700000000E+01 0.  1.
         -4    1    1    2    0  501  0.11407924695E+01  0.13693432660E+01 -0.90102967221E+01  0.92722626936E+01  0.12700000000E+01 0. -1.
<mgrwt>
<rscale>  0 0.21884717E+01</rscale>
<asrwt>0</asrwt>
<pdfrwt beam="1">0</pdfrwt>
<pdfrwt beam="2">0</pdfrwt>
<totfact> 0.26786189E+12</totfact>
</mgrwt>
</event>
<event>
 4    1  0.1750553E+006  0.2684746E+01  0.7546771E-02  0.2632290E+00
         22   -1    0    0    0    0  0.00000000000E+00  0.00000000000E+00  0.25356337651E+01  0.25356337651E+01  0.00000000000E+00 0. -1.
         22   -1    0    0    0    0 -0.00000000000E+00 -0.00000000000E+00 -0.32849335115E+01  0.32849335115E+01  0.00000000000E+00 0.  1.
          4    1    1    2  501    0 -0.23307518754E+01  0.40318350278E+00  0.69325765015E+00  0.27728085782E+01  0.12700000000E+01 0. -1.
         -4    1    1    2    0  501  0.23307518754E+01 -0.40318350278E+00 -0.14425573966E+01  0.30477586985E+01  0.12700000000E+01 0.  1.
<mgrwt>
<rscale>  0 0.26847460E+01</rscale>
<asrwt>0</asrwt>
<pdfrwt beam="1">0</pdfrwt>
<pdfrwt beam="2">0</pdfrwt>
<totfact> 0.20416364E+12</totfact>
</mgrwt>
</event>
<event>
 4    1  0.1750553E+006  0.2362184E+01  0.7546771E-02  0.2772594E+00
         22   -1    0    0    0    0  0.00000000000E+00  0.00000000000E+00  0.86564130688E+00  0.86564130688E+00  0.00000000000E+00 0. -1.
         22   -1    0    0    0    0 -0.00000000000E+00 -0.00000000000E+00 -0.79453914465E+01  0.79453914465E+01  0.00000000000E+00 0.  1.
          4    1    1    2  501    0  0.11671672191E+00 -0.19883130111E+01 -0.54536848367E+01  0.59432810569E+01  0.12700000000E+01 0. -1.
         -4    1    1    2    0  501 -0.11671672191E+00  0.19883130111E+01 -0.16260653029E+01  0.28677516965E+01  0.12700000000E+01 0.  1.
<mgrwt>
<rscale>  0 0.23621836E+01</rscale>
<asrwt>0</asrwt>
<pdfrwt beam="1">0</pdfrwt>
<pdfrwt beam="2">0</pdfrwt>
<totfact> 0.24685193E+12</totfact>
</mgrwt>
</event>
<event>
 4    1  0.1750553E+006  0.3407552E+01  0.7546771E-02  0.2407218E+00
         22   -1    0    0    0    0  0.00000000000E+00  0.00000000000E+00  0.46862156260E+02  0.46862156260E+02  0.00000000000E+00 0.  1.
         22   -1    0    0    0    0 -0.00000000000E+00 -0.00000000000E+00 -0.26125820293E+00  0.26125820293E+00  0.00000000000E+00 0. -1.
          4    1    1    2  501    0  0.15480152751E+01  0.27572013865E+01  0.17948398552E+02  0.18269001652E+02  0.12700000000E+01 0.  1.
         -4    1    1    2    0  501 -0.15480152751E+01 -0.27572013865E+01  0.28652499505E+02  0.28854412811E+02  0.12700000000E+01 0. -1.
<mgrwt>
<rscale>  0 0.34075520E+01</rscale>
<asrwt>0</asrwt>
<pdfrwt beam="1">0</pdfrwt>
<pdfrwt beam="2">0</pdfrwt>
<totfact> 0.10405145E+12</totfact>
</mgrwt>
</event>
<event>
 4    1  0.1750553E+006  0.2443407E+01  0.7546771E-02  0.2734018E+00
         22   -1    0    0    0    0  0.00000000000E+00  0.00000000000E+00  0.52250057503E+01  0.52250057503E+01  0.00000000000E+00 0.  1.
         22   -1    0    0    0    0 -0.00000000000E+00 -0.00000000000E+00 -0.11954925961E+01  0.11954925961E+01  0.00000000000E+00 0. -1.
          4    1    1    2  501    0  0.65914045555E+00 -0.19806235252E+01  0.13396855459E+01  0.27865737117E+01  0.12700000000E+01 0.  1.
         -4    1    1    2    0  501 -0.65914045555E+00  0.19806235252E+01  0.26898276083E+01  0.36339246347E+01  0.12700000000E+01 0. -1.
<mgrwt>
<rscale>  0 0.24434066E+01</rscale>
<asrwt>0</asrwt>
<pdfrwt beam="1">0</pdfrwt>
<pdfrwt beam="2">0</pdfrwt>
<totfact> 0.28148554E+12</totfact>
</mgrwt>
</event>
<event>
 4    1  0.1750553E+006  0.2154317E+01  0.7546771E-02  0.2883815E+00
         22   -1    0    0    0    0  0.00000000000E+00  0.00000000000E+00  0.21792342942E+01  0.21792342942E+01  0.00000000000E+00 0.  1.
         22   -1    0    0    0    0 -0.00000000000E+00 -0.00000000000E+00 -0.41202489113E+01  0.41202489113E+01  0.00000000000E+00 0. -1.
          4    1    1    2  501    0  0.34101595079E+00 -0.17064257200E+01  0.12187729549E+01  0.24751743639E+01  0.12700000000E+01 0.  1.
         -4    1    1    2    0  501 -0.34101595079E+00  0.17064257200E+01 -0.31597875719E+01  0.38243088416E+01  0.12700000000E+01 0. -1.
<mgrwt>
<rscale>  0 0.21543167E+01</rscale>
<asrwt>0</asrwt>
<pdfrwt beam="1">0</pdfrwt>
<pdfrwt beam="2">0</pdfrwt>
<totfact> 0.18656345E+12</totfact>
</mgrwt>
</event>
<event>
 4    1  0.1750553E+006  0.3058553E+01  0.7546771E-02  0.2503995E+00
         22   -1    0    0    0    0  0.00000000000E+00  0.00000000000E+00  0.69735860672E+02  0.69735860672E+02  0.00000000000E+00 0. -1.
         22   -1    0    0    0    0 -0.00000000000E+00 -0.00000000000E+00 -0.44807568690E+00  0.44807568690E+00  0.00000000000E+00 0.  1.
          4    1    1    2  501    0 -0.13754736700E+01 -0.24186603586E+01  0.64016914966E+02  0.64089937958E+02  0.12700000000E+01 0. -1.
         -4    1    1    2    0  501  0.13754736700E+01  0.24186603586E+01  0.52708700192E+01  0.60939984006E+01  0.12700000000E+01 0.  1.
<mgrwt>
<rscale>  0 0.30585529E+01</rscale>
<asrwt>0</asrwt>
<pdfrwt beam="1">0</pdfrwt>
<pdfrwt beam="2">0</pdfrwt>
<totfact> 0.33410909E+11</totfact>
</mgrwt>
</event>
<event>
 4    1  0.1750553E+006  0.3266410E+01  0.7546771E-02  0.2444153E+00
         22   -1    0    0    0    0  0.00000000000E+00  0.00000000000E+00  0.17195939393E+02  0.17195939393E+02  0.00000000000E+00 0. -1.
         22   -1    0    0    0    0 -0.00000000000E+00 -0.00000000000E+00 -0.62184194778E+00  0.62184194778E+00  0.00000000000E+00 0.  1.
          4    1    1    2  501    0 -0.29255940530E+01  0.70528868357E+00  0.87066747244E+01  0.92992267123E+01  0.12700000000E+01 0. -1.
         -4    1    1    2    0  501  0.29255940530E+01 -0.70528868357E+00  0.78674227210E+01  0.85185546286E+01  0.12700000000E+01 0. -1.
<mgrwt>
<rscale>  0 0.32664098E+01</rscale>
<asrwt>0</asrwt>
<pdfrwt beam="1">0</pdfrwt>
<pdfrwt beam="2">0</pdfrwt>
<totfact> 0.14029565E+12</totfact>
</mgrwt>
</event>
<event>
 4    1  0.1750553E+006  0.2980668E+01  0.7546771E-02  0.2528325E+00
         22   -1    0    0    0    0  0.00000000000E+00  0.00000000000E+00  0.46153879234E+01  0.46153879234E+01  0.00000000000E+00 0.  1.
         22   -1    0    0    0    0 -0.00000000000E+00 -0.00000000000E+00 -0.23834260992E+01  0.23834260992E+01  0.00000000000E+00 0. -1.
          4    1    1    2  501    0  0.16594563474E+01 -0.21254852490E+01 -0.41882262248E+00  0.30099493852E+01  0.12700000000E+01 0.  1.
         -4    1    1    2    0  501 -0.16594563474E+01  0.21254852490E+01  0.26507844467E+01  0.39888646374E+01  0.12700000000E+01 0. -1.
<mgrwt>
<rscale>  0 0.29806682E+01</rscale>
<asrwt>0</asrwt>
<pdfrwt beam="1">0</pdfrwt>
<pdfrwt beam="2">0</pdfrwt>
<totfact> 0.14708728E+12</totfact>
</mgrwt>
</event>
<event>
 4    1  0.1750553E+006  0.9644096E+01  0.7546771E-02  0.1793865E+00
         22   -1    0    0    0    0  0.00000000000E+00  0.00000000000E+00  0.81993832687E+01  0.81993832687E+01  0.00000000000E+00 0. -1.
         22   -1    0    0    0    0 -0.00000000000E+00 -0.00000000000E+00 -0.15562182213E+02  0.15562182213E+02  0.00000000000E+00 0.  1.
          4    1    1    2  501    0 -0.30389024837E+01  0.90642568047E+01  0.25045343624E+01  0.99639988007E+01  0.12700000000E+01 0. -1.
         -4    1    1    2    0  501  0.30389024837E+01 -0.90642568047E+01 -0.98673333063E+01  0.13797566681E+02  0.12700000000E+01 0.  1.
<mgrwt>
<rscale>  0 0.96440956E+01</rscale>
<asrwt>0</asrwt>
<pdfrwt beam="1">0</pdfrwt>
<pdfrwt beam="2">0</pdfrwt>
<totfact> 0.79080617E+10</totfact>
</mgrwt>
</event>
<event>
 4    1  0.1750553E+006  0.2017591E+01  0.7546771E-02  0.2968952E+00
         22   -1    0    0    0    0  0.00000000000E+00  0.00000000000E+00  0.10535713763E+01  0.10535713763E+01  0.00000000000E+00 0.  1.
         22   -1    0    0    0    0 -0.00000000000E+00 -0.00000000000E+00 -0.46846454143E+01  0.46846454143E+01  0.00000000000E+00 0. -1.
          4    1    1    2  501    0 -0.15554375766E+01 -0.19593122401E+00 -0.61446817673E+00  0.21090865889E+01  0.12700000000E+01 0.  1.
         -4    1    1    2    0  501  0.15554375766E+01  0.19593122401E+00 -0.30166058612E+01  0.36291302018E+01  0.12700000000E+01 0. -1.
<mgrwt>
<rscale>  0 0.20175914E+01</rscale>
<asrwt>0</asrwt>
<pdfrwt beam="1">0</pdfrwt>
<pdfrwt beam="2">0</pdfrwt>
<totfact> 0.37011870E+12</totfact>
</mgrwt>
</event>
<event>
 4    1  0.1750553E+006  0.2307044E+01  0.7546771E-02  0.2800237E+00
         22   -1    0    0    0    0  0.00000000000E+00  0.00000000000E+00  0.33475202368E+02  0.33475202368E+02  0.00000000000E+00 0. -1.
         22   -1    0    0    0    0 -0.00000000000E+00 -0.00000000000E+00 -0.42827429096E+00  0.42827429096E+00  0.00000000000E+00 0.  1.
          4    1    1    2  501    0 -0.14338536470E+01 -0.12859295044E+01  0.29965134424E+02  0.30053813935E+02  0.12700000000E+01 0. -1.
         -4    1    1    2    0  501  0.14338536470E+01  0.12859295044E+01  0.30817936534E+01  0.38496627246E+01  0.12700000000E+01 0.  1.
<mgrwt>
<rscale>  0 0.23070438E+01</rscale>
<asrwt>0</asrwt>
<pdfrwt beam="1">0</pdfrwt>
<pdfrwt beam="2">0</pdfrwt>
<totfact> 0.92408359E+11</totfact>
</mgrwt>
</event>
<event>
 4    1  0.1750553E+006  0.2211388E+01  0.7546771E-02  0.2851292E+00
         22   -1    0    0    0    0  0.00000000000E+00  0.00000000000E+00  0.48749145916E-01  0.48749145916E-01  0.00000000000E+00 0.  1.
         22   -1    0    0    0    0 -0.00000000000E+00 -0.00000000000E+00 -0.21271587070E+03  0.21271587070E+03  0.00000000000E+00 0.  1.
          4    1    1    2  501    0 -0.10295384027E+01  0.14890895451E+01 -0.29002202639E+02  0.29086388482E+02  0.12700000000E+01 0.  1.
         -4    1    1    2    0  501  0.10295384027E+01 -0.14890895451E+01 -0.18366491892E+03  0.18367823137E+03  0.12700000000E+01 0.  1.
<mgrwt>
<rscale>  0 0.22113880E+01</rscale>
<asrwt>0</asrwt>
<pdfrwt beam="1">0</pdfrwt>
<pdfrwt beam="2">0</pdfrwt>
<totfact> 0.78132009E+11</totfact>
</mgrwt>
</event>
<event>
 4    1  0.1750553E+006  0.3687596E+01  0.7546771E-02  0.2341309E+00
         22   -1    0    0    0    0  0.00000000000E+00  0.00000000000E+00  0.11827429148E+01  0.11827429148E+01  0.00000000000E+00 0. -1.
         22   -1    0    0    0    0 -0.00000000000E+00 -0.00000000000E+00 -0.13118804314E+02  0.13118804314E+02  0.00000000000E+00 0.  1.
          4    1    1    2  501    0 -0.78298758932E+00 -0.33722978029E+01 -0.34540403490E+01  0.50525990113E+01  0.12700000000E+01 0.  1.
         -4    1    1    2    0  501  0.78298758932E+00  0.33722978029E+01 -0.84820210504E+01  0.92489482178E+01  0.12700000000E+01 0. -1.
<mgrwt>
<rscale>  0 0.36875957E+01</rscale>
<asrwt>0</asrwt>
<pdfrwt beam="1">0</pdfrwt>
<pdfrwt beam="2">0</pdfrwt>
<totfact> 0.94117736E+11</totfact>
</mgrwt>
</event>
<event>
 4    1  0.1750553E+006  0.2050553E+01  0.7546771E-02  0.2947417E+00
         22   -1    0    0    0    0  0.00000000000E+00  0.00000000000E+00  0.54956315837E+01  0.54956315837E+01  0.00000000000E+00 0. -1.
         22   -1    0    0    0    0 -0.00000000000E+00 -0.00000000000E+00 -0.14751044723E+01  0.14751044723E+01  0.00000000000E+00 0.  1.
          4    1    1    2  501    0 -0.85674131619E+00 -0.13630340148E+01  0.44283090843E+01  0.48800295854E+01  0.12700000000E+01 0. -1.
         -4    1    1    2    0  501  0.85674131619E+00  0.13630340148E+01 -0.40778197294E+00  0.20907064705E+01  0.12700000000E+01 0.  1.
<mgrwt>
<rscale>  0 0.20505530E+01</rscale>
<asrwt>0</asrwt>
<pdfrwt beam="1">0</pdfrwt>
<pdfrwt beam="2">0</pdfrwt>
<totfact> 0.20827036E+12</totfact>
</mgrwt>
</event>
<event>
 4    1  0.1750553E+006  0.2872063E+01  0.7546771E-02  0.2564223E+00
         22   -1    0    0    0    0  0.00000000000E+00  0.00000000000E+00  0.26882997605E+01  0.26882997605E+01  0.00000000000E+00 0.  1.
         22   -1    0    0    0    0 -0.00000000000E+00 -0.00000000000E+00 -0.64178990527E+01  0.64178990527E+01  0.00000000000E+00 0. -1.
          4    1    1    2  501    0 -0.13931437558E+01  0.21667941610E+01  0.14244846027E+01  0.32059168491E+01  0.12700000000E+01 0.  1.
         -4    1    1    2    0  501  0.13931437558E+01 -0.21667941610E+01 -0.51540838949E+01  0.59002819641E+01  0.12700000000E+01 0. -1.
<mgrwt>
<rscale>  0 0.28720631E+01</rscale>
<asrwt>0</asrwt>
<pdfrwt beam="1">0</pdfrwt>
<pdfrwt beam="2">0</pdfrwt>
<totfact> 0.86455572E+11</totfact>
</mgrwt>
</event>
<event>
 4    1  0.1750553E+006  0.2132793E+01  0.7546771E-02  0.2896515E+00
         22   -1    0    0    0    0  0.00000000000E+00  0.00000000000E+00  0.27172972249E+01  0.27172972249E+01  0.00000000000E+00 0. -1.
         22   -1    0    0    0    0 -0.00000000000E+00 -0.00000000000E+00 -0.16808337835E+01  0.16808337835E+01  0.00000000000E+00 0.  1.
          4    1    1    2  501    0  0.62007586633E+00 -0.15973137150E+01  0.65826306308E+00  0.22320652868E+01  0.12700000000E+01 0. -1.
         -4    1    1    2    0  501 -0.62007586633E+00  0.15973137150E+01  0.37820037836E+00  0.21660657216E+01  0.12700000000E+01 0.  1.
<mgrwt>
<rscale>  0 0.21327928E+01</rscale>
<asrwt>0</asrwt>
<pdfrwt beam="1">0</pdfrwt>
<pdfrwt beam="2">0</pdfrwt>
<totfact> 0.41022040E+12</totfact>
</mgrwt>
</event>
<event>
 4    1  0.1750553E+006  0.3071580E+01  0.7546771E-02  0.2500033E+00
         22   -1    0    0    0    0  0.00000000000E+00  0.00000000000E+00  0.21869743484E+01  0.21869743484E+01  0.00000000000E+00 0.  1.
         22   -1    0    0    0    0 -0.00000000000E+00 -0.00000000000E+00 -0.45984405875E+01  0.45984405875E+01  0.00000000000E+00 0. -1.
          4    1    1    2  501    0  0.96655425778E+00  0.26244006968E+01 -0.20495288493E+01  0.36925837370E+01  0.12700000000E+01 0. -1.
         -4    1    1    2    0  501 -0.96655425778E+00 -0.26244006968E+01 -0.36193738980E+00  0.30928311989E+01  0.12700000000E+01 0.  1.
<mgrwt>
<rscale>  0 0.30715804E+01</rscale>
<asrwt>0</asrwt>
<pdfrwt beam="1">0</pdfrwt>
<pdfrwt beam="2">0</pdfrwt>
<totfact> 0.16324070E+12</totfact>
</mgrwt>
</event>
<event>
 4    1  0.1750553E+006  0.2530869E+01  0.7546771E-02  0.2695075E+00
         22   -1    0    0    0    0  0.00000000000E+00  0.00000000000E+00  0.55370792499E+00  0.55370792499E+00  0.00000000000E+00 0.  1.
         22   -1    0    0    0    0 -0.00000000000E+00 -0.00000000000E+00 -0.11612081498E+02  0.11612081498E+02  0.00000000000E+00 0. -1.
          4    1    1    2  501    0  0.18106815024E+01 -0.12303791351E+01 -0.51544547969E+01  0.57422734672E+01  0.12700000000E+01 0. -1.
         -4    1    1    2    0  501 -0.18106815024E+01  0.12303791351E+01 -0.59039187763E+01  0.64235159560E+01  0.12700000000E+01 0.  1.
<mgrwt>
<rscale>  0 0.25308695E+01</rscale>
<asrwt>0</asrwt>
<pdfrwt beam="1">0</pdfrwt>
<pdfrwt beam="2">0</pdfrwt>
<totfact> 0.25906867E+12</totfact>
</mgrwt>
</event>
<event>
 4    1  0.1750553E+006  0.2073233E+01  0.7546771E-02  0.2932987E+00
         22   -1    0    0    0    0  0.00000000000E+00  0.00000000000E+00  0.19617042115E+02  0.19617042115E+02  0.00000000000E+00 0. -1.
         22   -1    0    0    0    0 -0.00000000000E+00 -0.00000000000E+00 -0.50536347667E+00  0.50536347667E+00  0.00000000000E+00 0.  1.
          4    1    1    2  501    0  0.11808452791E+01 -0.11362223577E+01  0.17128057206E+02  0.17253076261E+02  0.12700000000E+01 0. -1.
         -4    1    1    2    0  501 -0.11808452791E+01  0.11362223577E+01  0.19836214317E+01  0.28693293299E+01  0.12700000000E+01 0.  1.
<mgrwt>
<rscale>  0 0.20732334E+01</rscale>
<asrwt>0</asrwt>
<pdfrwt beam="1">0</pdfrwt>
<pdfrwt beam="2">0</pdfrwt>
<totfact> 0.15060655E+12</totfact>
</mgrwt>
</event>
<event>
 4    1  0.1750553E+006  0.2197749E+01  0.7546771E-02  0.2858917E+00
         22   -1    0    0    0    0  0.00000000000E+00  0.00000000000E+00  0.36972907842E+01  0.36972907842E+01  0.00000000000E+00 0. -1.
         22   -1    0    0    0    0 -0.00000000000E+00 -0.00000000000E+00 -0.27096982590E+01  0.27096982590E+01  0.00000000000E+00 0.  1.
          4    1    1    2  501    0 -0.15391852364E+00 -0.17870392850E+01  0.27991639514E+01  0.35588508180E+01  0.12700000000E+01 0. -1.
         -4    1    1    2    0  501  0.15391852364E+00  0.17870392850E+01 -0.18115714262E+01  0.28481382253E+01  0.12700000000E+01 0.  1.
<mgrwt>
<rscale>  0 0.21977489E+01</rscale>
<asrwt>0</asrwt>
<pdfrwt beam="1">0</pdfrwt>
<pdfrwt beam="2">0</pdfrwt>
<totfact> 0.16449821E+12</totfact>
</mgrwt>
</event>
<event>
 4    1  0.1750553E+006  0.6238666E+01  0.7546771E-02  0.1998923E+00
         22   -1    0    0    0    0  0.00000000000E+00  0.00000000000E+00  0.37449557151E+02  0.37449557151E+02  0.00000000000E+00 0.  1.
         22   -1    0    0    0    0 -0.00000000000E+00 -0.00000000000E+00 -0.33498826551E+01  0.33498826551E+01  0.00000000000E+00 0. -1.
          4    1    1    2  501    0  0.31908067939E+01  0.52083399986E+01  0.10758695829E+00  0.62395936158E+01  0.12700000000E+01 0. -1.
         -4    1    1    2    0  501 -0.31908067939E+01 -0.52083399986E+01  0.33992087538E+02  0.34559846190E+02  0.12700000000E+01 0.  1.
<mgrwt>
<rscale>  0 0.62386660E+01</rscale>
<asrwt>0</asrwt>
<pdfrwt beam="1">0</pdfrwt>
<pdfrwt beam="2">0</pdfrwt>
<totfact> 0.75607933E+10</totfact>
</mgrwt>
</event>
<event>
 4    1  0.1750553E+006  0.2161075E+01  0.7546771E-02  0.2879877E+00
         22   -1    0    0    0    0  0.00000000000E+00  0.00000000000E+00  0.28755226715E+01  0.28755226715E+01  0.00000000000E+00 0.  1.
         22   -1    0    0    0    0 -0.00000000000E+00 -0.00000000000E+00 -0.16652162767E+01  0.16652162767E+01  0.00000000000E+00 0. -1.
          4    1    1    2  501    0  0.11919253814E+01 -0.12793199307E+01  0.96174175079E+00  0.23654159878E+01  0.12700000000E+01 0.  1.
         -4    1    1    2    0  501 -0.11919253814E+01  0.12793199307E+01  0.24856464394E+00  0.21753229604E+01  0.12700000000E+01 0. -1.
<mgrwt>
<rscale>  0 0.21610751E+01</rscale>
<asrwt>0</asrwt>
<pdfrwt beam="1">0</pdfrwt>
<pdfrwt beam="2">0</pdfrwt>
<totfact> 0.38817701E+12</totfact>
</mgrwt>
</event>
<event>
 4    1  0.1750553E+006  0.3119985E+01  0.7546771E-02  0.2485572E+00
         22   -1    0    0    0    0  0.00000000000E+00  0.00000000000E+00  0.83943991465E-01  0.83943991465E-01  0.00000000000E+00 0.  1.
         22   -1    0    0    0    0 -0.00000000000E+00 -0.00000000000E+00 -0.14596471374E+03  0.14596471374E+03  0.00000000000E+00 0.  1.
          4    1    1    2  501    0 -0.19669551816E+00  0.28430119010E+01 -0.39833025997E+02  0.39955028042E+02  0.12700000000E+01 0.  1.
         -4    1    1    2    0  501  0.19669551816E+00 -0.28430119010E+01 -0.10604774375E+03  0.10609362968E+03  0.12700000000E+01 0.  1.
<mgrwt>
<rscale>  0 0.31199849E+01</rscale>
<asrwt>0</asrwt>
<pdfrwt beam="1">0</pdfrwt>
<pdfrwt beam="2">0</pdfrwt>
<totfact> 0.76257146E+11</totfact>
</mgrwt>
</event>
<event>
 4    1  0.1750553E+006  0.2138346E+01  0.7546771E-02  0.2893214E+00
         22   -1    0    0    0    0  0.00000000000E+00  0.00000000000E+00  0.39444189557E+00  0.39444189557E+00  0.00000000000E+00 0.  1.
         22   -1    0    0    0    0 -0.00000000000E+00 -0.00000000000E+00 -0.11677223558E+02  0.11677223558E+02  0.00000000000E+00 0. -1.
          4    1    1    2  501    0 -0.80539070413E+00 -0.15201878178E+01 -0.61558434551E+01  0.65166658524E+01  0.12700000000E+01 0. -1.
         -4    1    1    2    0  501  0.80539070413E+00  0.15201878178E+01 -0.51269382074E+01  0.55549996013E+01  0.12700000000E+01 0.  1.
<mgrwt>
<rscale>  0 0.21383464E+01</rscale>
<asrwt>0</asrwt>
<pdfrwt beam="1">0</pdfrwt>
<pdfrwt beam="2">0</pdfrwt>
<totfact> 0.37722820E+12</totfact>
</mgrwt>
</event>
<event>
 4    1  0.1750553E+006  0.2538173E+01  0.7546771E-02  0.2691937E+00
         22   -1    0    0    0    0  0.00000000000E+00  0.00000000000E+00  0.20600884811E+00  0.20600884811E+00  0.00000000000E+00 0. -1.
         22   -1    0    0    0    0 -0.00000000000E+00 -0.00000000000E+00 -0.32428980849E+02  0.32428980849E+02  0.00000000000E+00 0.  1.
          4    1    1    2  501    0  0.95458041888E+00  0.19794433813E+01 -0.13029435607E+02  0.13274355431E+02  0.12700000000E+01 0. -1.
         -4    1    1    2    0  501 -0.95458041888E+00 -0.19794433813E+01 -0.19193536394E+02  0.19360634266E+02  0.12700000000E+01 0.  1.
<mgrwt>
<rscale>  0 0.25381725E+01</rscale>
<asrwt>0</asrwt>
<pdfrwt beam="1">0</pdfrwt>
<pdfrwt beam="2">0</pdfrwt>
<totfact> 0.21864799E+12</totfact>
</mgrwt>
</event>
<event>
 4    1  0.1750553E+006  0.2089289E+01  0.7546771E-02  0.2922956E+00
         22   -1    0    0    0    0  0.00000000000E+00  0.00000000000E+00  0.26013441322E+01  0.26013441322E+01  0.00000000000E+00 0.  1.
         22   -1    0    0    0    0 -0.00000000000E+00 -0.00000000000E+00 -0.20822335720E+01  0.20822335720E+01  0.00000000000E+00 0. -1.
          4    1    1    2  501    0 -0.16533292952E+01  0.13686621957E+00  0.12913273856E+01  0.24561466848E+01  0.12700000000E+01 0. -1.
         -4    1    1    2    0  501  0.16533292952E+01 -0.13686621957E+00 -0.77221682542E+00  0.22274310194E+01  0.12700000000E+01 0.  1.
<mgrwt>
<rscale>  0 0.20892894E+01</rscale>
<asrwt>0</asrwt>
<pdfrwt beam="1">0</pdfrwt>
<pdfrwt beam="2">0</pdfrwt>
<totfact> 0.33695806E+12</totfact>
</mgrwt>
</event>
<event>
 4    1  0.1750553E+006  0.2612396E+01  0.7546771E-02  0.2660960E+00
         22   -1    0    0    0    0  0.00000000000E+00  0.00000000000E+00  0.31304633720E+01  0.31304633720E+01  0.00000000000E+00 0.  1.
         22   -1    0    0    0    0 -0.00000000000E+00 -0.00000000000E+00 -0.34358816775E+01  0.34358816775E+01  0.00000000000E+00 0.  1.
          4    1    1    2  501    0  0.15688577110E+01  0.16584329222E+01 -0.21376048604E+01  0.33754953435E+01  0.12700000000E+01 0.  1.
         -4    1    1    2    0  501 -0.15688577110E+01 -0.16584329222E+01  0.18321865549E+01  0.31908497061E+01  0.12700000000E+01 0.  1.
<mgrwt>
<rscale>  0 0.26123963E+01</rscale>
<asrwt>0</asrwt>
<pdfrwt beam="1">0</pdfrwt>
<pdfrwt beam="2">0</pdfrwt>
<totfact> 0.15148299E+12</totfact>
</mgrwt>
</event>
<event>
 4    1  0.1750553E+006  0.2196432E+01  0.7546771E-02  0.2859658E+00
         22   -1    0    0    0    0  0.00000000000E+00  0.00000000000E+00  0.10915601580E+02  0.10915601580E+02  0.00000000000E+00 0. -1.
         22   -1    0    0    0    0 -0.00000000000E+00 -0.00000000000E+00 -0.34717754582E+01  0.34717754582E+01  0.00000000000E+00 0.  1.
          4    1    1    2  501    0  0.13859867250E+01  0.11359825201E+01  0.10442133734E+02  0.10670635989E+02  0.12700000000E+01 0. -1.
         -4    1    1    2    0  501 -0.13859867250E+01 -0.11359825201E+01 -0.29983076125E+01  0.37167410492E+01  0.12700000000E+01 0.  1.
<mgrwt>
<rscale>  0 0.21964324E+01</rscale>
<asrwt>0</asrwt>
<pdfrwt beam="1">0</pdfrwt>
<pdfrwt beam="2">0</pdfrwt>
<totfact> 0.33834766E+11</totfact>
</mgrwt>
</event>
<event>
 4    1  0.1750553E+006  0.3184021E+01  0.7546771E-02  0.2467043E+00
         22   -1    0    0    0    0  0.00000000000E+00  0.00000000000E+00  0.75335930262E+00  0.75335930262E+00  0.00000000000E+00 0.  1.
         22   -1    0    0    0    0 -0.00000000000E+00 -0.00000000000E+00 -0.13525082321E+02  0.13525082321E+02  0.00000000000E+00 0.  1.
          4    1    1    2  501    0  0.15121095934E+01  0.24977217231E+01 -0.68922197494E+01  0.75921460934E+01  0.12700000000E+01 0.  1.
         -4    1    1    2    0  501 -0.15121095934E+01 -0.24977217231E+01 -0.58795032692E+01  0.66862955305E+01  0.12700000000E+01 0.  1.
<mgrwt>
<rscale>  0 0.31840209E+01</rscale>
<asrwt>0</asrwt>
<pdfrwt beam="1">0</pdfrwt>
<pdfrwt beam="2">0</pdfrwt>
<totfact> 0.15168070E+12</totfact>
</mgrwt>
</event>
<event>
 4    1  0.1750553E+006  0.3258770E+01  0.7546771E-02  0.2446233E+00
         22   -1    0    0    0    0  0.00000000000E+00  0.00000000000E+00  0.19987818315E+01  0.19987818315E+01  0.00000000000E+00 0. -1.
         22   -1    0    0    0    0 -0.00000000000E+00 -0.00000000000E+00 -0.61996471995E+01  0.61996471995E+01  0.00000000000E+00 0.  1.
          4    1    1    2  501    0  0.14816253648E+01 -0.26098783576E+01 -0.36506277326E+01  0.48935326304E+01  0.12700000000E+01 0.  1.
         -4    1    1    2    0  501 -0.14816253648E+01  0.26098783576E+01 -0.55023763537E+00  0.33048964006E+01  0.12700000000E+01 0. -1.
<mgrwt>
<rscale>  0 0.32587695E+01</rscale>
<asrwt>0</asrwt>
<pdfrwt beam="1">0</pdfrwt>
<pdfrwt beam="2">0</pdfrwt>
<totfact> 0.12710845E+12</totfact>
</mgrwt>
</event>
<event>
 4    1  0.1750553E+006  0.2620092E+01  0.7546771E-02  0.2657842E+00
         22   -1    0    0    0    0  0.00000000000E+00  0.00000000000E+00  0.12376033337E+02  0.12376033337E+02  0.00000000000E+00 0.  1.
         22   -1    0    0    0    0 -0.00000000000E+00 -0.00000000000E+00 -0.59181397412E+00  0.59181397412E+00  0.00000000000E+00 0.  1.
          4    1    1    2  501    0  0.22796065759E+01 -0.23532330830E+00  0.75160215774E+01  0.79596145354E+01  0.12700000000E+01 0.  1.
         -4    1    1    2    0  501 -0.22796065759E+01  0.23532330830E+00  0.42681977858E+01  0.50082327760E+01  0.12700000000E+01 0.  1.
<mgrwt>
<rscale>  0 0.26200922E+01</rscale>
<asrwt>0</asrwt>
<pdfrwt beam="1">0</pdfrwt>
<pdfrwt beam="2">0</pdfrwt>
<totfact> 0.22231642E+12</totfact>
</mgrwt>
</event>
<event>
 4    1  0.1750553E+006  0.2562058E+01  0.7546771E-02  0.2681787E+00
         22   -1    0    0    0    0  0.00000000000E+00  0.00000000000E+00  0.29651784738E+02  0.29651784738E+02  0.00000000000E+00 0.  1.
         22   -1    0    0    0    0 -0.00000000000E+00 -0.00000000000E+00 -0.42723282778E+00  0.42723282778E+00  0.00000000000E+00 0. -1.
          4    1    1    2  501    0  0.16993494786E+01 -0.14364718021E+01  0.41726271513E+01  0.48964229017E+01  0.12700000000E+01 0. -1.
         -4    1    1    2    0  501 -0.16993494786E+01  0.14364718021E+01  0.25051924759E+02  0.25182594665E+02  0.12700000000E+01 0.  1.
<mgrwt>
<rscale>  0 0.25620577E+01</rscale>
<asrwt>0</asrwt>
<pdfrwt beam="1">0</pdfrwt>
<pdfrwt beam="2">0</pdfrwt>
<totfact> 0.10820309E+12</totfact>
</mgrwt>
</event>
<event>
 4    1  0.1750553E+006  0.2630708E+01  0.7546771E-02  0.2653567E+00
         22   -1    0    0    0    0  0.00000000000E+00  0.00000000000E+00  0.70112838193E+01  0.70112838193E+01  0.00000000000E+00 0.  1.
         22   -1    0    0    0    0 -0.00000000000E+00 -0.00000000000E+00 -0.12840584247E+01  0.12840584247E+01  0.00000000000E+00 0. -1.
          4    1    1    2  501    0 -0.22056923830E+01 -0.66531482324E+00  0.86889139303E+00  0.27704864113E+01  0.12700000000E+01 0. -1.
         -4    1    1    2    0  501  0.22056923830E+01  0.66531482324E+00  0.48583340015E+01  0.55248558327E+01  0.12700000000E+01 0.  1.
<mgrwt>
<rscale>  0 0.26307076E+01</rscale>
<asrwt>0</asrwt>
<pdfrwt beam="1">0</pdfrwt>
<pdfrwt beam="2">0</pdfrwt>
<totfact> 0.18272894E+12</totfact>
</mgrwt>
</event>
<event>
 4    1  0.1750553E+006  0.2771558E+01  0.7546771E-02  0.2599703E+00
         22   -1    0    0    0    0  0.00000000000E+00  0.00000000000E+00  0.17293690770E+01  0.17293690770E+01  0.00000000000E+00 0.  1.
         22   -1    0    0    0    0 -0.00000000000E+00 -0.00000000000E+00 -0.47157732040E+01  0.47157732040E+01  0.00000000000E+00 0.  1.
          4    1    1    2  501    0  0.29803632627E+00 -0.24453650701E+01 -0.71647414721E+00  0.28626685420E+01  0.12700000000E+01 0.  1.
         -4    1    1    2    0  501 -0.29803632627E+00  0.24453650701E+01 -0.22699299798E+01  0.35824737390E+01  0.12700000000E+01 0.  1.
<mgrwt>
<rscale>  0 0.27715584E+01</rscale>
<asrwt>0</asrwt>
<pdfrwt beam="1">0</pdfrwt>
<pdfrwt beam="2">0</pdfrwt>
<totfact> 0.20789116E+12</totfact>
</mgrwt>
</event>
<event>
 4    1  0.1750553E+006  0.4240530E+01  0.7546771E-02  0.2233546E+00
         22   -1    0    0    0    0  0.00000000000E+00  0.00000000000E+00  0.17745257344E+01  0.17745257344E+01  0.00000000000E+00 0. -1.
         22   -1    0    0    0    0 -0.00000000000E+00 -0.00000000000E+00 -0.14145818797E+02  0.14145818797E+02  0.00000000000E+00 0.  1.
          4    1    1    2  501    0 -0.76533219883E+00 -0.39728401570E+01 -0.19462104030E+01  0.46658147435E+01  0.12700000000E+01 0. -1.
         -4    1    1    2    0  501  0.76533219883E+00  0.39728401570E+01 -0.10425082660E+02  0.11254529788E+02  0.12700000000E+01 0.  1.
<mgrwt>
<rscale>  0 0.42405297E+01</rscale>
<asrwt>0</asrwt>
<pdfrwt beam="1">0</pdfrwt>
<pdfrwt beam="2">0</pdfrwt>
<totfact> 0.53821054E+11</totfact>
</mgrwt>
</event>
<event>
 4    1  0.1750553E+006  0.2112553E+01  0.7546771E-02  0.2908686E+00
         22   -1    0    0    0    0  0.00000000000E+00  0.00000000000E+00  0.73474764192E+01  0.73474764192E+01  0.00000000000E+00 0. -1.
         22   -1    0    0    0    0 -0.00000000000E+00 -0.00000000000E+00 -0.89835986998E+00  0.89835986998E+00  0.00000000000E+00 0.  1.
          4    1    1    2  501    0 -0.25317190759E+00 -0.16690967035E+01  0.55709136358E+01  0.59580163274E+01  0.12700000000E+01 0. -1.
         -4    1    1    2    0  501  0.25317190759E+00  0.16690967035E+01  0.87820291343E+00  0.22878199618E+01  0.12700000000E+01 0.  1.
<mgrwt>
<rscale>  0 0.21125529E+01</rscale>
<asrwt>0</asrwt>
<pdfrwt beam="1">0</pdfrwt>
<pdfrwt beam="2">0</pdfrwt>
<totfact> 0.25990516E+12</totfact>
</mgrwt>
</event>
<event>
 4    1  0.1750553E+006  0.3339808E+01  0.7546771E-02  0.2424603E+00
         22   -1    0    0    0    0  0.00000000000E+00  0.00000000000E+00  0.12314669257E+02  0.12314669257E+02  0.00000000000E+00 0. -1.
         22   -1    0    0    0    0 -0.00000000000E+00 -0.00000000000E+00 -0.10223380097E+01  0.10223380097E+01  0.00000000000E+00 0.  1.
          4    1    1    2  501    0  0.12360924810E+01  0.28308115359E+01  0.78978715018E+01  0.85750039553E+01  0.12700000000E+01 0.  1.
         -4    1    1    2    0  501 -0.12360924810E+01 -0.28308115359E+01  0.33944597450E+01  0.47620033110E+01  0.12700000000E+01 0. -1.
<mgrwt>
<rscale>  0 0.33398082E+01</rscale>
<asrwt>0</asrwt>
<pdfrwt beam="1">0</pdfrwt>
<pdfrwt beam="2">0</pdfrwt>
<totfact> 0.12012921E+12</totfact>
</mgrwt>
</event>
<event>
 4    1  0.1750553E+006  0.2032839E+01  0.7546771E-02  0.2958905E+00
         22   -1    0    0    0    0  0.00000000000E+00  0.00000000000E+00  0.26661015822E+00  0.26661015822E+00  0.00000000000E+00 0.  1.
         22   -1    0    0    0    0 -0.00000000000E+00 -0.00000000000E+00 -0.21073564945E+02  0.21073564945E+02  0.00000000000E+00 0.  1.
          4    1    1    2  501    0 -0.13773018836E+01 -0.78903245828E+00 -0.49160456871E+01  0.53197685943E+01  0.12700000000E+01 0.  1.
         -4    1    1    2    0  501  0.13773018836E+01  0.78903245828E+00 -0.15890909100E+02  0.16020406509E+02  0.12700000000E+01 0.  1.
<mgrwt>
<rscale>  0 0.20328386E+01</rscale>
<asrwt>0</asrwt>
<pdfrwt beam="1">0</pdfrwt>
<pdfrwt beam="2">0</pdfrwt>
<totfact> 0.28267009E+12</totfact>
</mgrwt>
</event>
<event>
 4    1  0.1750553E+006  0.2857330E+01  0.7546771E-02  0.2569282E+00
         22   -1    0    0    0    0  0.00000000000E+00  0.00000000000E+00  0.64363667262E+00  0.64363667262E+00  0.00000000000E+00 0. -1.
         22   -1    0    0    0    0 -0.00000000000E+00 -0.00000000000E+00 -0.25964189508E+02  0.25964189508E+02  0.00000000000E+00 0.  1.
          4    1    1    2  501    0 -0.23833729704E+01 -0.93325747107E+00 -0.22174705903E+02  0.22358039228E+02  0.12700000000E+01 0.  1.
         -4    1    1    2    0  501  0.23833729704E+01  0.93325747107E+00 -0.31458469324E+01  0.42497869529E+01  0.12700000000E+01 0. -1.
<mgrwt>
<rscale>  0 0.28573303E+01</rscale>
<asrwt>0</asrwt>
<pdfrwt beam="1">0</pdfrwt>
<pdfrwt beam="2">0</pdfrwt>
<totfact> 0.80592317E+11</totfact>
</mgrwt>
</event>
<event>
 4    1  0.1750553E+006  0.2988129E+01  0.7546771E-02  0.2525945E+00
         22   -1    0    0    0    0  0.00000000000E+00  0.00000000000E+00  0.92262608275E+01  0.92262608275E+01  0.00000000000E+00 0.  1.
         22   -1    0    0    0    0 -0.00000000000E+00 -0.00000000000E+00 -0.74963041741E+01  0.74963041741E+01  0.00000000000E+00 0. -1.
          4    1    1    2  501    0  0.84524110839E+00  0.25693542423E+01  0.86678970382E+01  0.91684978496E+01  0.12700000000E+01 0.  1.
         -4    1    1    2    0  501 -0.84524110839E+00 -0.25693542423E+01 -0.69379403848E+01  0.75540671520E+01  0.12700000000E+01 0. -1.
<mgrwt>
<rscale>  0 0.29881288E+01</rscale>
<asrwt>0</asrwt>
<pdfrwt beam="1">0</pdfrwt>
<pdfrwt beam="2">0</pdfrwt>
<totfact> 0.16660580E+11</totfact>
</mgrwt>
</event>
<event>
 4    1  0.1750553E+006  0.2070917E+01  0.7546771E-02  0.2934447E+00
         22   -1    0    0    0    0  0.00000000000E+00  0.00000000000E+00  0.21805388890E+00  0.21805388890E+00  0.00000000000E+00 0.  1.
         22   -1    0    0    0    0 -0.00000000000E+00 -0.00000000000E+00 -0.24401705993E+02  0.24401705993E+02  0.00000000000E+00 0. -1.
          4    1    1    2  501    0  0.24635603513E+00  0.16171283422E+01 -0.66700453618E+01  0.69841392096E+01  0.12700000000E+01 0.  1.
         -4    1    1    2    0  501 -0.24635603513E+00 -0.16171283422E+01 -0.17513606742E+02  0.17635620672E+02  0.12700000000E+01 0. -1.
<mgrwt>
<rscale>  0 0.20709166E+01</rscale>
<asrwt>0</asrwt>
<pdfrwt beam="1">0</pdfrwt>
<pdfrwt beam="2">0</pdfrwt>
<totfact> 0.29443934E+12</totfact>
</mgrwt>
</event>
<event>
 4    1  0.1750553E+006  0.3712409E+01  0.7546771E-02  0.2335887E+00
         22   -1    0    0    0    0  0.00000000000E+00  0.00000000000E+00  0.46486228214E+01  0.46486228214E+01  0.00000000000E+00 0.  1.
         22   -1    0    0    0    0 -0.00000000000E+00 -0.00000000000E+00 -0.47222908816E+01  0.47222908816E+01  0.00000000000E+00 0. -1.
          4    1    1    2  501    0  0.34688006033E+01  0.36945917174E+00  0.28216054762E+01  0.46629856496E+01  0.12700000000E+01 0. -1.
         -4    1    1    2    0  501 -0.34688006033E+01 -0.36945917174E+00 -0.28952735364E+01  0.47079280534E+01  0.12700000000E+01 0.  1.
<mgrwt>
<rscale>  0 0.37124086E+01</rscale>
<asrwt>0</asrwt>
<pdfrwt beam="1">0</pdfrwt>
<pdfrwt beam="2">0</pdfrwt>
<totfact> 0.65461501E+11</totfact>
</mgrwt>
</event>
<event>
 4    1  0.1750553E+006  0.4380713E+01  0.7546771E-02  0.2209936E+00
         22   -1    0    0    0    0  0.00000000000E+00  0.00000000000E+00  0.13177246479E+01  0.13177246479E+01  0.00000000000E+00 0. -1.
         22   -1    0    0    0    0 -0.00000000000E+00 -0.00000000000E+00 -0.54236525186E+02  0.54236525186E+02  0.00000000000E+00 0.  1.
          4    1    1    2  501    0 -0.37607239578E+01 -0.18532950982E+01 -0.27025330903E+01  0.51472645659E+01  0.12700000000E+01 0. -1.
         -4    1    1    2    0  501  0.37607239578E+01  0.18532950982E+01 -0.50216267447E+02  0.50406985268E+02  0.12700000000E+01 0.  1.
<mgrwt>
<rscale>  0 0.43807131E+01</rscale>
<asrwt>0</asrwt>
<pdfrwt beam="1">0</pdfrwt>
<pdfrwt beam="2">0</pdfrwt>
<totfact> 0.13728779E+11</totfact>
</mgrwt>
</event>
<event>
 4    1  0.1750553E+006  0.2098650E+01  0.7546771E-02  0.2917177E+00
         22   -1    0    0    0    0  0.00000000000E+00  0.00000000000E+00  0.16697134171E+03  0.16697134171E+03  0.00000000000E+00 0.  1.
         22   -1    0    0    0    0 -0.00000000000E+00 -0.00000000000E+00 -0.33938446701E-01  0.33938446701E-01  0.00000000000E+00 0.  1.
          4    1    1    2  501    0 -0.16494305844E+01 -0.26610251500E+00  0.12288125151E+03  0.12289917129E+03  0.12700000000E+01 0.  1.
         -4    1    1    2    0  501  0.16494305844E+01  0.26610251500E+00  0.44056151748E+02  0.44106108859E+02  0.12700000000E+01 0.  1.
<mgrwt>
<rscale>  0 0.20986500E+01</rscale>
<asrwt>0</asrwt>
<pdfrwt beam="1">0</pdfrwt>
<pdfrwt beam="2">0</pdfrwt>
<totfact> 0.16893276E+12</totfact>
</mgrwt>
</event>
<event>
 4    1  0.1750553E+006  0.2864116E+01  0.7546771E-02  0.2566946E+00
         22   -1    0    0    0    0  0.00000000000E+00  0.00000000000E+00  0.46902721917E+01  0.46902721917E+01  0.00000000000E+00 0. -1.
         22   -1    0    0    0    0 -0.00000000000E+00 -0.00000000000E+00 -0.45737986721E+01  0.45737986721E+01  0.00000000000E+00 0.  1.
          4    1    1    2  501    0  0.40642907992E+00 -0.25347737966E+01  0.36984692472E+01  0.46778026433E+01  0.12700000000E+01 0. -1.
         -4    1    1    2    0  501 -0.40642907992E+00  0.25347737966E+01 -0.35819957277E+01  0.45862682204E+01  0.12700000000E+01 0.  1.
<mgrwt>
<rscale>  0 0.28641164E+01</rscale>
<asrwt>0</asrwt>
<pdfrwt beam="1">0</pdfrwt>
<pdfrwt beam="2">0</pdfrwt>
<totfact> 0.67266497E+11</totfact>
</mgrwt>
</event>
<event>
 4    1  0.1750553E+006  0.2405097E+01  0.7546771E-02  0.2751908E+00
         22   -1    0    0    0    0  0.00000000000E+00  0.00000000000E+00  0.16274195753E+02  0.16274195753E+02  0.00000000000E+00 0. -1.
         22   -1    0    0    0    0 -0.00000000000E+00 -0.00000000000E+00 -0.43488733396E+00  0.43488733396E+00  0.00000000000E+00 0. -1.
          4    1    1    2  501    0  0.15328408046E+01  0.13498110033E+01  0.11490536188E+02  0.11739544819E+02  0.12700000000E+01 0. -1.
         -4    1    1    2    0  501 -0.15328408046E+01 -0.13498110033E+01  0.43487722316E+01  0.49695382682E+01  0.12700000000E+01 0. -1.
<mgrwt>
<rscale>  0 0.24050968E+01</rscale>
<asrwt>0</asrwt>
<pdfrwt beam="1">0</pdfrwt>
<pdfrwt beam="2">0</pdfrwt>
<totfact> 0.22495504E+12</totfact>
</mgrwt>
</event>
<event>
 4    1  0.1750553E+006  0.2097596E+01  0.7546771E-02  0.2917826E+00
         22   -1    0    0    0    0  0.00000000000E+00  0.00000000000E+00  0.18738689156E+00  0.18738689156E+00  0.00000000000E+00 0. -1.
         22   -1    0    0    0    0 -0.00000000000E+00 -0.00000000000E+00 -0.25230667091E+02  0.25230667091E+02  0.00000000000E+00 0. -1.
          4    1    1    2  501    0 -0.15244466143E+01  0.68049329618E+00 -0.91742441051E+01  0.94109863195E+01  0.12700000000E+01 0. -1.
         -4    1    1    2    0  501  0.15244466143E+01 -0.68049329618E+00 -0.15869036095E+02  0.16007067663E+02  0.12700000000E+01 0. -1.
<mgrwt>
<rscale>  0 0.20975959E+01</rscale>
<asrwt>0</asrwt>
<pdfrwt beam="1">0</pdfrwt>
<pdfrwt beam="2">0</pdfrwt>
<totfact> 0.33430835E+12</totfact>
</mgrwt>
</event>
<event>
 4    1  0.1750553E+006  0.4024917E+01  0.7546771E-02  0.2272557E+00
         22   -1    0    0    0    0  0.00000000000E+00  0.00000000000E+00  0.74867886010E+00  0.74867886010E+00  0.00000000000E+00 0. -1.
         22   -1    0    0    0    0 -0.00000000000E+00 -0.00000000000E+00 -0.21648067680E+02  0.21648067680E+02  0.00000000000E+00 0.  1.
          4    1    1    2  501    0  0.26856936386E+01 -0.27155301793E+01 -0.10690527957E+02  0.11423105640E+02  0.12700000000E+01 0.  1.
         -4    1    1    2    0  501 -0.26856936386E+01  0.27155301793E+01 -0.10208860863E+02  0.10973640900E+02  0.12700000000E+01 0. -1.
<mgrwt>
<rscale>  0 0.40249167E+01</rscale>
<asrwt>0</asrwt>
<pdfrwt beam="1">0</pdfrwt>
<pdfrwt beam="2">0</pdfrwt>
<totfact> 0.85328906E+11</totfact>
</mgrwt>
</event>
<event>
 4    1  0.1750553E+006  0.2603685E+01  0.7546771E-02  0.2664512E+00
         22   -1    0    0    0    0  0.00000000000E+00  0.00000000000E+00  0.10600265256E+02  0.10600265256E+02  0.00000000000E+00 0.  1.
         22   -1    0    0    0    0 -0.00000000000E+00 -0.00000000000E+00 -0.10677853571E+01  0.10677853571E+01  0.00000000000E+00 0. -1.
          4    1    1    2  501    0 -0.36036651075E+00 -0.22441946634E+01  0.84609332800E+01  0.88524892363E+01  0.12700000000E+01 0.  1.
         -4    1    1    2    0  501  0.36036651075E+00  0.22441946634E+01  0.10715466186E+01  0.28155613766E+01  0.12700000000E+01 0. -1.
<mgrwt>
<rscale>  0 0.26036846E+01</rscale>
<asrwt>0</asrwt>
<pdfrwt beam="1">0</pdfrwt>
<pdfrwt beam="2">0</pdfrwt>
<totfact> 0.13717888E+12</totfact>
</mgrwt>
</event>
<event>
 4    1  0.1750553E+006  0.2632871E+01  0.7546771E-02  0.2652700E+00
         22   -1    0    0    0    0  0.00000000000E+00  0.00000000000E+00  0.37508746457E+02  0.37508746457E+02  0.00000000000E+00 0. -1.
         22   -1    0    0    0    0 -0.00000000000E+00 -0.00000000000E+00 -0.27186118853E+01  0.27186118853E+01  0.00000000000E+00 0.  1.
          4    1    1    2  501    0  0.23027904772E+01 -0.12754584482E+00  0.36813053729E+02  0.36907085184E+02  0.12700000000E+01 0. -1.
         -4    1    1    2    0  501 -0.23027904772E+01  0.12754584482E+00 -0.20229191576E+01  0.33202731579E+01  0.12700000000E+01 0.  1.
<mgrwt>
<rscale>  0 0.26328714E+01</rscale>
<asrwt>0</asrwt>
<pdfrwt beam="1">0</pdfrwt>
<pdfrwt beam="2">0</pdfrwt>
<totfact> 0.96298643E+10</totfact>
</mgrwt>
</event>
<event>
 4    1  0.1750553E+006  0.3052697E+01  0.7546771E-02  0.2505785E+00
         22   -1    0    0    0    0  0.00000000000E+00  0.00000000000E+00  0.17759468577E+02  0.17759468577E+02  0.00000000000E+00 0. -1.
         22   -1    0    0    0    0 -0.00000000000E+00 -0.00000000000E+00 -0.84706246196E+00  0.84706246196E+00  0.00000000000E+00 0.  1.
          4    1    1    2  501    0  0.23125566557E+01 -0.15356230731E+01  0.14195101790E+02  0.14519637438E+02  0.12700000000E+01 0. -1.
         -4    1    1    2    0  501 -0.23125566557E+01  0.15356230731E+01  0.27173043248E+01  0.40868936005E+01  0.12700000000E+01 0.  1.
<mgrwt>
<rscale>  0 0.30526966E+01</rscale>
<asrwt>0</asrwt>
<pdfrwt beam="1">0</pdfrwt>
<pdfrwt beam="2">0</pdfrwt>
<totfact> 0.94891458E+11</totfact>
</mgrwt>
</event>
<event>
 4    1  0.1750553E+006  0.2560105E+01  0.7546771E-02  0.2682610E+00
         22   -1    0    0    0    0  0.00000000000E+00  0.00000000000E+00  0.81880316343E+01  0.81880316343E+01  0.00000000000E+00 0.  1.
         22   -1    0    0    0    0 -0.00000000000E+00 -0.00000000000E+00 -0.62013600448E+01  0.62013600448E+01  0.00000000000E+00 0. -1.
          4    1    1    2  501    0  0.49588060853E+00  0.21668736275E+01  0.77076598034E+01  0.81217090899E+01  0.12700000000E+01 0.  1.
         -4    1    1    2    0  501 -0.49588060853E+00 -0.21668736275E+01 -0.57209882140E+01  0.62676825893E+01  0.12700000000E+01 0. -1.
<mgrwt>
<rscale>  0 0.25601053E+01</rscale>
<asrwt>0</asrwt>
<pdfrwt beam="1">0</pdfrwt>
<pdfrwt beam="2">0</pdfrwt>
<totfact> 0.24131387E+11</totfact>
</mgrwt>
</event>
<event>
 4    1  0.1750553E+006  0.2238117E+01  0.7546771E-02  0.2836607E+00
         22   -1    0    0    0    0  0.00000000000E+00  0.00000000000E+00  0.83762556127E+01  0.83762556127E+01  0.00000000000E+00 0. -1.
         22   -1    0    0    0    0 -0.00000000000E+00 -0.00000000000E+00 -0.18455963306E+01  0.18455963306E+01  0.00000000000E+00 0.  1.
          4    1    1    2  501    0  0.11716084543E+01  0.14225334887E+01  0.74674143681E+01  0.77956042255E+01  0.12700000000E+01 0. -1.
         -4    1    1    2    0  501 -0.11716084543E+01 -0.14225334887E+01 -0.93675508604E+00  0.24262477178E+01  0.12700000000E+01 0.  1.
<mgrwt>
<rscale>  0 0.22381170E+01</rscale>
<asrwt>0</asrwt>
<pdfrwt beam="1">0</pdfrwt>
<pdfrwt beam="2">0</pdfrwt>
<totfact> 0.97213173E+11</totfact>
</mgrwt>
</event>
<event>
 4    1  0.1750553E+006  0.2199896E+01  0.7546771E-02  0.2857711E+00
         22   -1    0    0    0    0  0.00000000000E+00  0.00000000000E+00  0.33553623526E+00  0.33553623526E+00  0.00000000000E+00 0. -1.
         22   -1    0    0    0    0 -0.00000000000E+00 -0.00000000000E+00 -0.15790045012E+02  0.15790045012E+02  0.00000000000E+00 0.  1.
          4    1    1    2  501    0 -0.17923994822E+01 -0.11809494002E+00 -0.10099372152E+02  0.10336191764E+02  0.12700000000E+01 0. -1.
         -4    1    1    2    0  501  0.17923994822E+01  0.11809494002E+00 -0.53551366246E+01  0.57893894831E+01  0.12700000000E+01 0.  1.
<mgrwt>
<rscale>  0 0.21998960E+01</rscale>
<asrwt>0</asrwt>
<pdfrwt beam="1">0</pdfrwt>
<pdfrwt beam="2">0</pdfrwt>
<totfact> 0.31259072E+12</totfact>
</mgrwt>
</event>
<event>
 4    1  0.1750553E+006  0.3652666E+01  0.7546771E-02  0.2349050E+00
         22   -1    0    0    0    0  0.00000000000E+00  0.00000000000E+00  0.33269017122E+02  0.33269017122E+02  0.00000000000E+00 0. -1.
         22   -1    0    0    0    0 -0.00000000000E+00 -0.00000000000E+00 -0.45836667027E+00  0.45836667027E+00  0.00000000000E+00 0.  1.
          4    1    1    2  501    0  0.21680780634E+01 -0.26511332794E+01  0.10441135855E+02  0.11061613269E+02  0.12700000000E+01 0. -1.
         -4    1    1    2    0  501 -0.21680780634E+01  0.26511332794E+01  0.22369514596E+02  0.22665770524E+02  0.12700000000E+01 0.  1.
<mgrwt>
<rscale>  0 0.36526662E+01</rscale>
<asrwt>0</asrwt>
<pdfrwt beam="1">0</pdfrwt>
<pdfrwt beam="2">0</pdfrwt>
<totfact> 0.86284786E+11</totfact>
</mgrwt>
</event>
<event>
 4    1  0.1750553E+006  0.2074829E+01  0.7546771E-02  0.2931983E+00
         22   -1    0    0    0    0  0.00000000000E+00  0.00000000000E+00  0.27259986133E+00  0.27259986133E+00  0.00000000000E+00 0.  1.
         22   -1    0    0    0    0 -0.00000000000E+00 -0.00000000000E+00 -0.18114842266E+02  0.18114842266E+02  0.00000000000E+00 0. -1.
          4    1    1    2  501    0 -0.12035848079E+01 -0.11150781675E+01 -0.56289872940E+01  0.59992010856E+01  0.12700000000E+01 0.  1.
         -4    1    1    2    0  501  0.12035848079E+01  0.11150781675E+01 -0.12213255111E+02  0.12388241042E+02  0.12700000000E+01 0. -1.
<mgrwt>
<rscale>  0 0.20748291E+01</rscale>
<asrwt>0</asrwt>
<pdfrwt beam="1">0</pdfrwt>
<pdfrwt beam="2">0</pdfrwt>
<totfact> 0.33290743E+12</totfact>
</mgrwt>
</event>
<event>
 4    1  0.1750553E+006  0.2801907E+01  0.7546771E-02  0.2588746E+00
         22   -1    0    0    0    0  0.00000000000E+00  0.00000000000E+00  0.31452885172E+00  0.31452885172E+00  0.00000000000E+00 0. -1.
         22   -1    0    0    0    0 -0.00000000000E+00 -0.00000000000E+00 -0.33290966059E+02  0.33290966059E+02  0.00000000000E+00 0.  1.
          4    1    1    2  501    0  0.17345926618E+01  0.17969343519E+01 -0.80827663574E+01  0.85546359804E+01  0.12700000000E+01 0. -1.
         -4    1    1    2    0  501 -0.17345926618E+01 -0.17969343519E+01 -0.24893670850E+02  0.25050858930E+02  0.12700000000E+01 0.  1.
<mgrwt>
<rscale>  0 0.28019073E+01</rscale>
<asrwt>0</asrwt>
<pdfrwt beam="1">0</pdfrwt>
<pdfrwt beam="2">0</pdfrwt>
<totfact> 0.13168268E+12</totfact>
</mgrwt>
</event>
<event>
 4    1  0.1750553E+006  0.2556380E+01  0.7546771E-02  0.2684184E+00
         22   -1    0    0    0    0  0.00000000000E+00  0.00000000000E+00  0.27763749823E+01  0.27763749823E+01  0.00000000000E+00 0.  1.
         22   -1    0    0    0    0 -0.00000000000E+00 -0.00000000000E+00 -0.31537897520E+01  0.31537897520E+01  0.00000000000E+00 0. -1.
          4    1    1    2  501    0 -0.41083394826E+00  0.21802280735E+01  0.13046300637E+01  0.28700415657E+01  0.12700000000E+01 0.  1.
         -4    1    1    2    0  501  0.41083394826E+00 -0.21802280735E+01 -0.16820448333E+01  0.30601231686E+01  0.12700000000E+01 0. -1.
<mgrwt>
<rscale>  0 0.25563801E+01</rscale>
<asrwt>0</asrwt>
<pdfrwt beam="1">0</pdfrwt>
<pdfrwt beam="2">0</pdfrwt>
<totfact> 0.19266279E+12</totfact>
</mgrwt>
</event>
<event>
 4    1  0.1750553E+006  0.3055728E+01  0.7546771E-02  0.2504858E+00
         22   -1    0    0    0    0  0.00000000000E+00  0.00000000000E+00  0.74751027577E+00  0.74751027577E+00  0.00000000000E+00 0.  1.
         22   -1    0    0    0    0 -0.00000000000E+00 -0.00000000000E+00 -0.12493387663E+02  0.12493387663E+02  0.00000000000E+00 0. -1.
          4    1    1    2  501    0  0.27753514919E+01  0.14831148481E+00 -0.57900626831E+01  0.65469304314E+01  0.12700000000E+01 0.  1.
         -4    1    1    2    0  501 -0.27753514919E+01 -0.14831148481E+00 -0.59558147046E+01  0.66939675078E+01  0.12700000000E+01 0. -1.
<mgrwt>
<rscale>  0 0.30557278E+01</rscale>
<asrwt>0</asrwt>
<pdfrwt beam="1">0</pdfrwt>
<pdfrwt beam="2">0</pdfrwt>
<totfact> 0.16862769E+12</totfact>
</mgrwt>
</event>
<event>
 4    1  0.1750553E+006  0.2173087E+01  0.7546771E-02  0.2872937E+00
         22   -1    0    0    0    0  0.00000000000E+00  0.00000000000E+00  0.42240827756E+00  0.42240827756E+00  0.00000000000E+00 0. -1.
         22   -1    0    0    0    0 -0.00000000000E+00 -0.00000000000E+00 -0.34129012197E+02  0.34129012197E+02  0.00000000000E+00 0.  1.
          4    1    1    2  501    0  0.78181411189E+00 -0.15805613466E+01 -0.26868558932E+01  0.34556478505E+01  0.12700000000E+01 0. -1.
         -4    1    1    2    0  501 -0.78181411189E+00  0.15805613466E+01 -0.31019748027E+02  0.31095772624E+02  0.12700000000E+01 0.  1.
<mgrwt>
<rscale>  0 0.21730871E+01</rscale>
<asrwt>0</asrwt>
<pdfrwt beam="1">0</pdfrwt>
<pdfrwt beam="2">0</pdfrwt>
<totfact> 0.91550899E+11</totfact>
</mgrwt>
</event>
<event>
 4    1  0.1750553E+006  0.2200495E+01  0.7546771E-02  0.2857374E+00
         22   -1    0    0    0    0  0.00000000000E+00  0.00000000000E+00  0.25677986244E+00  0.25677986244E+00  0.00000000000E+00 0.  1.
         22   -1    0    0    0    0 -0.00000000000E+00 -0.00000000000E+00 -0.19203959843E+02  0.19203959843E+02  0.00000000000E+00 0.  1.
          4    1    1    2  501    0  0.16909039853E+01 -0.60837751605E+00 -0.81662922053E+01  0.84575710385E+01  0.12700000000E+01 0.  1.
         -4    1    1    2    0  501 -0.16909039853E+01  0.60837751605E+00 -0.10780887776E+02  0.11003168667E+02  0.12700000000E+01 0.  1.
<mgrwt>
<rscale>  0 0.22004953E+01</rscale>
<asrwt>0</asrwt>
<pdfrwt beam="1">0</pdfrwt>
<pdfrwt beam="2">0</pdfrwt>
<totfact> 0.33104779E+12</totfact>
</mgrwt>
</event>
<event>
 4    1  0.1750553E+006  0.2388587E+01  0.7546771E-02  0.2759784E+00
         22   -1    0    0    0    0  0.00000000000E+00  0.00000000000E+00  0.16943010419E+01  0.16943010419E+01  0.00000000000E+00 0. -1.
         22   -1    0    0    0    0 -0.00000000000E+00 -0.00000000000E+00 -0.50880425519E+01  0.50880425519E+01  0.00000000000E+00 0. -1.
          4    1    1    2  501    0 -0.14227195000E+01  0.14381644142E+01  0.27520165710E+00  0.24043884066E+01  0.12700000000E+01 0. -1.
         -4    1    1    2    0  501  0.14227195000E+01 -0.14381644142E+01 -0.36689431671E+01  0.43779551872E+01  0.12700000000E+01 0. -1.
<mgrwt>
<rscale>  0 0.23885870E+01</rscale>
<asrwt>0</asrwt>
<pdfrwt beam="1">0</pdfrwt>
<pdfrwt beam="2">0</pdfrwt>
<totfact> 0.19455520E+12</totfact>
</mgrwt>
</event>
<event>
 4    1  0.1750553E+006  0.2258426E+01  0.7546771E-02  0.2825671E+00
         22   -1    0    0    0    0  0.00000000000E+00  0.00000000000E+00  0.29544049598E+01  0.29544049598E+01  0.00000000000E+00 0.  1.
         22   -1    0    0    0    0 -0.00000000000E+00 -0.00000000000E+00 -0.20163409075E+01  0.20163409075E+01  0.00000000000E+00 0. -1.
          4    1    1    2  501    0 -0.12825424457E+01 -0.13574515039E+01  0.14114923290E+01  0.26632311776E+01  0.12700000000E+01 0.  1.
         -4    1    1    2    0  501  0.12825424457E+01  0.13574515039E+01 -0.47342827668E+00  0.23075146898E+01  0.12700000000E+01 0. -1.
<mgrwt>
<rscale>  0 0.22584264E+01</rscale>
<asrwt>0</asrwt>
<pdfrwt beam="1">0</pdfrwt>
<pdfrwt beam="2">0</pdfrwt>
<totfact> 0.30152092E+12</totfact>
</mgrwt>
</event>
<event>
 4    1  0.1750553E+006  0.2960170E+01  0.7546771E-02  0.2534918E+00
         22   -1    0    0    0    0  0.00000000000E+00  0.00000000000E+00  0.25529306435E+02  0.25529306435E+02  0.00000000000E+00 0.  1.
         22   -1    0    0    0    0 -0.00000000000E+00 -0.00000000000E+00 -0.12537226683E+01  0.12537226683E+01  0.00000000000E+00 0. -1.
          4    1    1    2  501    0 -0.26738385944E+01  0.17127498969E-01  0.23549889597E+02  0.23735203943E+02  0.12700000000E+01 0.  1.
         -4    1    1    2    0  501  0.26738385944E+01 -0.17127498969E-01  0.72569416963E+00  0.30478251603E+01  0.12700000000E+01 0. -1.
<mgrwt>
<rscale>  0 0.29601700E+01</rscale>
<asrwt>0</asrwt>
<pdfrwt beam="1">0</pdfrwt>
<pdfrwt beam="2">0</pdfrwt>
<totfact> 0.38502055E+11</totfact>
</mgrwt>
</event>
<event>
 4    1  0.1750553E+006  0.2916663E+01  0.7546771E-02  0.2549190E+00
         22   -1    0    0    0    0  0.00000000000E+00  0.00000000000E+00  0.22011154220E+01  0.22011154220E+01  0.00000000000E+00 0.  1.
         22   -1    0    0    0    0 -0.00000000000E+00 -0.00000000000E+00 -0.40609579065E+01  0.40609579065E+01  0.00000000000E+00 0. -1.
          4    1    1    2  501    0  0.64521858306E+00  0.25451355602E+01 -0.16180204984E+01  0.33354028802E+01  0.12700000000E+01 0.  1.
         -4    1    1    2    0  501 -0.64521858306E+00 -0.25451355602E+01 -0.24182198617E+00  0.29266704483E+01  0.12700000000E+01 0. -1.
<mgrwt>
<rscale>  0 0.29166628E+01</rscale>
<asrwt>0</asrwt>
<pdfrwt beam="1">0</pdfrwt>
<pdfrwt beam="2">0</pdfrwt>
<totfact> 0.18760149E+12</totfact>
</mgrwt>
</event>
<event>
 4    1  0.1750553E+006  0.2428619E+01  0.7546771E-02  0.2740861E+00
         22   -1    0    0    0    0  0.00000000000E+00  0.00000000000E+00  0.19944452858E+02  0.19944452858E+02  0.00000000000E+00 0.  1.
         22   -1    0    0    0    0 -0.00000000000E+00 -0.00000000000E+00 -0.29738937341E+00  0.29738937341E+00  0.00000000000E+00 0.  1.
          4    1    1    2  501    0 -0.19254846834E+01  0.76013087350E+00  0.10579348843E+02  0.10854529569E+02  0.12700000000E+01 0.  1.
         -4    1    1    2    0  501  0.19254846834E+01 -0.76013087350E+00  0.90677146415E+01  0.93873126629E+01  0.12700000000E+01 0.  1.
<mgrwt>
<rscale>  0 0.24286190E+01</rscale>
<asrwt>0</asrwt>
<pdfrwt beam="1">0</pdfrwt>
<pdfrwt beam="2">0</pdfrwt>
<totfact> 0.26792865E+12</totfact>
</mgrwt>
</event>
<event>
 4    1  0.1750553E+006  0.8738714E+01  0.7546771E-02  0.1836378E+00
         22   -1    0    0    0    0  0.00000000000E+00  0.00000000000E+00  0.44718593496E+01  0.44718593496E+01  0.00000000000E+00 0.  1.
         22   -1    0    0    0    0 -0.00000000000E+00 -0.00000000000E+00 -0.17087541438E+02  0.17087541438E+02  0.00000000000E+00 0. -1.
          4    1    1    2  501    0  0.53666357021E+01  0.67787488400E+01 -0.60377590255E+01  0.10621659411E+02  0.12700000000E+01 0. -1.
         -4    1    1    2    0  501 -0.53666357021E+01 -0.67787488400E+01 -0.65779230624E+01  0.10937741376E+02  0.12700000000E+01 0.  1.
<mgrwt>
<rscale>  0 0.87387136E+01</rscale>
<asrwt>0</asrwt>
<pdfrwt beam="1">0</pdfrwt>
<pdfrwt beam="2">0</pdfrwt>
<totfact> 0.14503606E+11</totfact>
</mgrwt>
</event>
<event>
 4    1  0.1750553E+006  0.2440291E+01  0.7546771E-02  0.2735454E+00
         22   -1    0    0    0    0  0.00000000000E+00  0.00000000000E+00  0.17266332187E+01  0.17266332187E+01  0.00000000000E+00 0.  1.
         22   -1    0    0    0    0 -0.00000000000E+00 -0.00000000000E+00 -0.48386597682E+01  0.48386597682E+01  0.00000000000E+00 0. -1.
          4    1    1    2  501    0  0.61285724149E+00  0.19916135755E+01  0.20324023223E+00  0.24487395175E+01  0.12700000000E+01 0.  1.
         -4    1    1    2    0  501 -0.61285724149E+00 -0.19916135755E+01 -0.33152667818E+01  0.41165534694E+01  0.12700000000E+01 0. -1.
<mgrwt>
<rscale>  0 0.24402907E+01</rscale>
<asrwt>0</asrwt>
<pdfrwt beam="1">0</pdfrwt>
<pdfrwt beam="2">0</pdfrwt>
<totfact> 0.20202731E+12</totfact>
</mgrwt>
</event>
<event>
 4    1  0.1750553E+006  0.2386002E+01  0.7546771E-02  0.2761026E+00
         22   -1    0    0    0    0  0.00000000000E+00  0.00000000000E+00  0.43740906051E+01  0.43740906051E+01  0.00000000000E+00 0. -1.
         22   -1    0    0    0    0 -0.00000000000E+00 -0.00000000000E+00 -0.35294132325E+01  0.35294132325E+01  0.00000000000E+00 0. -1.
          4    1    1    2  501    0 -0.20100225265E+01  0.19979267033E+00  0.35620136198E+01  0.42873008637E+01  0.12700000000E+01 0. -1.
         -4    1    1    2    0  501  0.20100225265E+01 -0.19979267033E+00 -0.27173362472E+01  0.36162029739E+01  0.12700000000E+01 0. -1.
<mgrwt>
<rscale>  0 0.23860024E+01</rscale>
<asrwt>0</asrwt>
<pdfrwt beam="1">0</pdfrwt>
<pdfrwt beam="2">0</pdfrwt>
<totfact> 0.99097813E+11</totfact>
</mgrwt>
</event>
<event>
 4    1  0.1750553E+006  0.3287342E+01  0.7546771E-02  0.2438499E+00
         22   -1    0    0    0    0  0.00000000000E+00  0.00000000000E+00  0.13948842143E+01  0.13948842143E+01  0.00000000000E+00 0.  1.
         22   -1    0    0    0    0 -0.00000000000E+00 -0.00000000000E+00 -0.77870532780E+01  0.77870532780E+01  0.00000000000E+00 0. -1.
          4    1    1    2  501    0  0.26153634753E+01 -0.15341413265E+01 -0.28681480841E+01  0.43626699565E+01  0.12700000000E+01 0. -1.
         -4    1    1    2    0  501 -0.26153634753E+01  0.15341413265E+01 -0.35240209796E+01  0.48192675358E+01  0.12700000000E+01 0.  1.
<mgrwt>
<rscale>  0 0.32873417E+01</rscale>
<asrwt>0</asrwt>
<pdfrwt beam="1">0</pdfrwt>
<pdfrwt beam="2">0</pdfrwt>
<totfact> 0.14652976E+12</totfact>
</mgrwt>
</event>
<event>
 4    1  0.1750553E+006  0.2194802E+01  0.7546771E-02  0.2860576E+00
         22   -1    0    0    0    0  0.00000000000E+00  0.00000000000E+00  0.12208530514E+01  0.12208530514E+01  0.00000000000E+00 0. -1.
         22   -1    0    0    0    0 -0.00000000000E+00 -0.00000000000E+00 -0.39835070793E+01  0.39835070793E+01  0.00000000000E+00 0.  1.
          4    1    1    2  501    0 -0.15547330419E+01 -0.88716514299E+00 -0.11279207954E+01  0.24676632962E+01  0.12700000000E+01 0. -1.
         -4    1    1    2    0  501  0.15547330419E+01  0.88716514299E+00 -0.16347332325E+01  0.27366968345E+01  0.12700000000E+01 0. -1.
<mgrwt>
<rscale>  0 0.21948022E+01</rscale>
<asrwt>0</asrwt>
<pdfrwt beam="1">0</pdfrwt>
<pdfrwt beam="2">0</pdfrwt>
<totfact> 0.37856483E+12</totfact>
</mgrwt>
</event>
<event>
 4    1  0.1750553E+006  0.2236902E+01  0.7546771E-02  0.2837267E+00
         22   -1    0    0    0    0  0.00000000000E+00  0.00000000000E+00  0.23305357544E+02  0.23305357544E+02  0.00000000000E+00 0. -1.
         22   -1    0    0    0    0 -0.00000000000E+00 -0.00000000000E+00 -0.25019452615E+00  0.25019452615E+00  0.00000000000E+00 0. -1.
          4    1    1    2  501    0  0.18274147724E+01  0.22668463489E+00  0.15963531050E+02  0.16119492990E+02  0.12700000000E+01 0. -1.
         -4    1    1    2    0  501 -0.18274147724E+01 -0.22668463489E+00  0.70916319678E+01  0.74360590799E+01  0.12700000000E+01 0. -1.
<mgrwt>
<rscale>  0 0.22369020E+01</rscale>
<asrwt>0</asrwt>
<pdfrwt beam="1">0</pdfrwt>
<pdfrwt beam="2">0</pdfrwt>
<totfact> 0.26754331E+12</totfact>
</mgrwt>
</event>
<event>
 4    1  0.1750553E+006  0.2944118E+01  0.7546771E-02  0.2540139E+00
         22   -1    0    0    0    0  0.00000000000E+00  0.00000000000E+00  0.10325975070E+03  0.10325975070E+03  0.00000000000E+00 0.  1.
         22   -1    0    0    0    0 -0.00000000000E+00 -0.00000000000E+00 -0.10009664013E+00  0.10009664013E+00  0.00000000000E+00 0. -1.
          4    1    1    2  501    0 -0.79716881583E+00 -0.25336642281E+01  0.72341408204E+02  0.72401292623E+02  0.12700000000E+01 0.  1.
         -4    1    1    2    0  501  0.79716881583E+00  0.25336642281E+01  0.30818245859E+02  0.30958554720E+02  0.12700000000E+01 0. -1.
<mgrwt>
<rscale>  0 0.29441183E+01</rscale>
<asrwt>0</asrwt>
<pdfrwt beam="1">0</pdfrwt>
<pdfrwt beam="2">0</pdfrwt>
<totfact> 0.10349209E+12</totfact>
</mgrwt>
</event>
<event>
 4    1  0.1750553E+006  0.2242000E+01  0.7546771E-02  0.2834502E+00
         22   -1    0    0    0    0  0.00000000000E+00  0.00000000000E+00  0.53693167467E+02  0.53693167467E+02  0.00000000000E+00 0.  1.
         22   -1    0    0    0    0 -0.00000000000E+00 -0.00000000000E+00 -0.19922586028E+00  0.19922586028E+00  0.00000000000E+00 0. -1.
          4    1    1    2  501    0  0.17383157629E+01 -0.62603570692E+00  0.46365930697E+02  0.46420104392E+02  0.12700000000E+01 0.  1.
         -4    1    1    2    0  501 -0.17383157629E+01  0.62603570692E+00  0.71280109094E+01  0.74722889346E+01  0.12700000000E+01 0. -1.
<mgrwt>
<rscale>  0 0.22419996E+01</rscale>
<asrwt>0</asrwt>
<pdfrwt beam="1">0</pdfrwt>
<pdfrwt beam="2">0</pdfrwt>
<totfact> 0.11770386E+12</totfact>
</mgrwt>
</event>
<event>
 4    1  0.1750553E+006  0.3591387E+01  0.7546771E-02  0.2362943E+00
         22   -1    0    0    0    0  0.00000000000E+00  0.00000000000E+00  0.53518784047E+01  0.53518784047E+01  0.00000000000E+00 0. -1.
         22   -1    0    0    0    0 -0.00000000000E+00 -0.00000000000E+00 -0.14109630247E+02  0.14109630247E+02  0.00000000000E+00 0. -1.
          4    1    1    2  501    0 -0.10589194228E+01 -0.31880795968E+01  0.44819588599E+01  0.57433454607E+01  0.12700000000E+01 0. -1.
         -4    1    1    2    0  501  0.10589194228E+01  0.31880795968E+01 -0.13239710702E+02  0.13718163191E+02  0.12700000000E+01 0. -1.
<mgrwt>
<rscale>  0 0.35913872E+01</rscale>
<asrwt>0</asrwt>
<pdfrwt beam="1">0</pdfrwt>
<pdfrwt beam="2">0</pdfrwt>
<totfact> 0.14847619E+11</totfact>
</mgrwt>
</event>
<event>
 4    1  0.1750553E+006  0.2502209E+01  0.7546771E-02  0.2707557E+00
         22   -1    0    0    0    0  0.00000000000E+00  0.00000000000E+00  0.29968153400E+00  0.29968153400E+00  0.00000000000E+00 0.  1.
         22   -1    0    0    0    0 -0.00000000000E+00 -0.00000000000E+00 -0.23458784533E+02  0.23458784533E+02  0.00000000000E+00 0. -1.
          4    1    1    2  501    0 -0.99141378914E+00 -0.19144833453E+01 -0.15508730308E+02  0.15709289085E+02  0.12700000000E+01 0. -1.
         -4    1    1    2    0  501  0.99141378914E+00  0.19144833453E+01 -0.76503726910E+01  0.80491769823E+01  0.12700000000E+01 0.  1.
<mgrwt>
<rscale>  0 0.25022086E+01</rscale>
<asrwt>0</asrwt>
<pdfrwt beam="1">0</pdfrwt>
<pdfrwt beam="2">0</pdfrwt>
<totfact> 0.21679362E+12</totfact>
</mgrwt>
</event>
<event>
 4    1  0.1750553E+006  0.2858685E+01  0.7546771E-02  0.2568815E+00
         22   -1    0    0    0    0  0.00000000000E+00  0.00000000000E+00  0.19473304821E+02  0.19473304821E+02  0.00000000000E+00 0. -1.
         22   -1    0    0    0    0 -0.00000000000E+00 -0.00000000000E+00 -0.62816644430E+00  0.62816644430E+00  0.00000000000E+00 0.  1.
          4    1    1    2  501    0 -0.11856530675E+01  0.22701119807E+01  0.15213185598E+02  0.15479441128E+02  0.12700000000E+01 0. -1.
         -4    1    1    2    0  501  0.11856530675E+01 -0.22701119807E+01  0.36319527784E+01  0.46220301368E+01  0.12700000000E+01 0.  1.
<mgrwt>
<rscale>  0 0.28586853E+01</rscale>
<asrwt>0</asrwt>
<pdfrwt beam="1">0</pdfrwt>
<pdfrwt beam="2">0</pdfrwt>
<totfact> 0.11884820E+12</totfact>
</mgrwt>
</event>
<event>
 4    1  0.1750553E+006  0.2469593E+01  0.7546771E-02  0.2722089E+00
         22   -1    0    0    0    0  0.00000000000E+00  0.00000000000E+00  0.14134226805E+01  0.14134226805E+01  0.00000000000E+00 0.  1.
         22   -1    0    0    0    0 -0.00000000000E+00 -0.00000000000E+00 -0.47857855627E+01  0.47857855627E+01  0.00000000000E+00 0.  1.
          4    1    1    2  501    0 -0.21179222744E+01 -0.19908327175E-01 -0.71399347621E+00  0.25707348727E+01  0.12700000000E+01 0.  1.
         -4    1    1    2    0  501  0.21179222744E+01  0.19908327175E-01 -0.26583694059E+01  0.36284733705E+01  0.12700000000E+01 0.  1.
<mgrwt>
<rscale>  0 0.24695933E+01</rscale>
<asrwt>0</asrwt>
<pdfrwt beam="1">0</pdfrwt>
<pdfrwt beam="2">0</pdfrwt>
<totfact> 0.25772621E+12</totfact>
</mgrwt>
</event>
<event>
 4    1  0.1750553E+006  0.2388047E+01  0.7546771E-02  0.2760043E+00
         22   -1    0    0    0    0  0.00000000000E+00  0.00000000000E+00  0.54019540536E+02  0.54019540536E+02  0.00000000000E+00 0.  1.
         22   -1    0    0    0    0 -0.00000000000E+00 -0.00000000000E+00 -0.10820153020E+00  0.10820153020E+00  0.00000000000E+00 0. -1.
          4    1    1    2  501    0  0.10952975460E+01 -0.17000562477E+01  0.31177412865E+02  0.31268735838E+02  0.12700000000E+01 0.  1.
         -4    1    1    2    0  501 -0.10952975460E+01  0.17000562477E+01  0.22733926141E+02  0.22859006228E+02  0.12700000000E+01 0. -1.
<mgrwt>
<rscale>  0 0.23880469E+01</rscale>
<asrwt>0</asrwt>
<pdfrwt beam="1">0</pdfrwt>
<pdfrwt beam="2">0</pdfrwt>
<totfact> 0.23015189E+12</totfact>
</mgrwt>
</event>
<event>
 4    1  0.1750553E+006  0.2693436E+01  0.7546771E-02  0.2628941E+00
         22   -1    0    0    0    0  0.00000000000E+00  0.00000000000E+00  0.67765479278E+01  0.67765479278E+01  0.00000000000E+00 0.  1.
         22   -1    0    0    0    0 -0.00000000000E+00 -0.00000000000E+00 -0.15380338509E+02  0.15380338509E+02  0.00000000000E+00 0. -1.
          4    1    1    2  501    0  0.21901240806E+01 -0.91926810501E+00  0.63840384603E+01  0.69289641650E+01  0.12700000000E+01 0.  1.
         -4    1    1    2    0  501 -0.21901240806E+01  0.91926810501E+00 -0.14987829042E+02  0.15227922272E+02  0.12700000000E+01 0. -1.
<mgrwt>
<rscale>  0 0.26934360E+01</rscale>
<asrwt>0</asrwt>
<pdfrwt beam="1">0</pdfrwt>
<pdfrwt beam="2">0</pdfrwt>
<totfact> 0.10082385E+11</totfact>
</mgrwt>
</event>
<event>
 4    1  0.1750553E+006  0.3151892E+01  0.7546771E-02  0.2476256E+00
         22   -1    0    0    0    0  0.00000000000E+00  0.00000000000E+00  0.61068472814E+02  0.61068472814E+02  0.00000000000E+00 0. -1.
         22   -1    0    0    0    0 -0.00000000000E+00 -0.00000000000E+00 -0.20713884325E+00  0.20713884325E+00  0.00000000000E+00 0.  1.
          4    1    1    2  501    0 -0.26474989181E+01 -0.11455458298E+01  0.44625210551E+02  0.44736381643E+02  0.12700000000E+01 0. -1.
         -4    1    1    2    0  501  0.26474989181E+01  0.11455458298E+01  0.16236123420E+02  0.16539230015E+02  0.12700000000E+01 0.  1.
<mgrwt>
<rscale>  0 0.31518924E+01</rscale>
<asrwt>0</asrwt>
<pdfrwt beam="1">0</pdfrwt>
<pdfrwt beam="2">0</pdfrwt>
<totfact> 0.94934131E+11</totfact>
</mgrwt>
</event>
<event>
 4    1  0.1750553E+006  0.2080884E+01  0.7546771E-02  0.2928189E+00
         22   -1    0    0    0    0  0.00000000000E+00  0.00000000000E+00  0.29433934462E+00  0.29433934462E+00  0.00000000000E+00 0.  1.
         22   -1    0    0    0    0 -0.00000000000E+00 -0.00000000000E+00 -0.17630292443E+02  0.17630292443E+02  0.00000000000E+00 0. -1.
          4    1    1    2  501    0 -0.16224212501E+01 -0.29142230007E+00 -0.50211403445E+01  0.54352486630E+01  0.12700000000E+01 0.  1.
         -4    1    1    2    0  501  0.16224212501E+01  0.29142230007E+00 -0.12314812754E+02  0.12489383124E+02  0.12700000000E+01 0. -1.
<mgrwt>
<rscale>  0 0.20808839E+01</rscale>
<asrwt>0</asrwt>
<pdfrwt beam="1">0</pdfrwt>
<pdfrwt beam="2">0</pdfrwt>
<totfact> 0.31593255E+12</totfact>
</mgrwt>
</event>
<event>
 4    1  0.1750553E+006  0.2068374E+01  0.7546771E-02  0.2936053E+00
         22   -1    0    0    0    0  0.00000000000E+00  0.00000000000E+00  0.62256862675E+01  0.62256862675E+01  0.00000000000E+00 0. -1.
         22   -1    0    0    0    0 -0.00000000000E+00 -0.00000000000E+00 -0.10718990069E+01  0.10718990069E+01  0.00000000000E+00 0.  1.
          4    1    1    2  501    0 -0.15101722473E+01  0.62020134307E+00  0.47628616966E+01  0.51925929422E+01  0.12700000000E+01 0.  1.
         -4    1    1    2    0  501  0.15101722473E+01 -0.62020134307E+00  0.39092556405E+00  0.21049923323E+01  0.12700000000E+01 0.  1.
<mgrwt>
<rscale>  0 0.20683737E+01</rscale>
<asrwt>0</asrwt>
<pdfrwt beam="1">0</pdfrwt>
<pdfrwt beam="2">0</pdfrwt>
<totfact> 0.25895017E+12</totfact>
</mgrwt>
</event>
<event>
 4    1  0.1750553E+006  0.2160215E+01  0.7546771E-02  0.2880377E+00
         22   -1    0    0    0    0  0.00000000000E+00  0.00000000000E+00  0.47142603809E+01  0.47142603809E+01  0.00000000000E+00 0. -1.
         22   -1    0    0    0    0 -0.00000000000E+00 -0.00000000000E+00 -0.13578530022E+01  0.13578530022E+01  0.00000000000E+00 0.  1.
          4    1    1    2  501    0 -0.68476863233E-01 -0.17461208958E+01  0.32587039837E+01  0.39096903864E+01  0.12700000000E+01 0.  1.
         -4    1    1    2    0  501  0.68476863233E-01  0.17461208958E+01  0.97703395005E-01  0.21624229968E+01  0.12700000000E+01 0.  1.
<mgrwt>
<rscale>  0 0.21602146E+01</rscale>
<asrwt>0</asrwt>
<pdfrwt beam="1">0</pdfrwt>
<pdfrwt beam="2">0</pdfrwt>
<totfact> 0.27471543E+12</totfact>
</mgrwt>
</event>
<event>
 4    1  0.1750553E+006  0.3070209E+01  0.7546771E-02  0.2500448E+00
         22   -1    0    0    0    0  0.00000000000E+00  0.00000000000E+00  0.44395264792E+02  0.44395264792E+02  0.00000000000E+00 0.  1.
         22   -1    0    0    0    0 -0.00000000000E+00 -0.00000000000E+00 -0.30041113794E+00  0.30041113794E+00  0.00000000000E+00 0. -1.
          4    1    1    2  501    0  0.19148240475E+01  0.20363530297E+01  0.34148767670E+02  0.34286506357E+02  0.12700000000E+01 0.  1.
         -4    1    1    2    0  501 -0.19148240475E+01 -0.20363530297E+01  0.99460859847E+01  0.10409169573E+02  0.12700000000E+01 0. -1.
<mgrwt>
<rscale>  0 0.30702092E+01</rscale>
<asrwt>0</asrwt>
<pdfrwt beam="1">0</pdfrwt>
<pdfrwt beam="2">0</pdfrwt>
<totfact> 0.95514936E+11</totfact>
</mgrwt>
</event>
<event>
 4    1  0.1750553E+006  0.2172473E+01  0.7546771E-02  0.2873290E+00
         22   -1    0    0    0    0  0.00000000000E+00  0.00000000000E+00  0.67328297615E+00  0.67328297615E+00  0.00000000000E+00 0. -1.
         22   -1    0    0    0    0 -0.00000000000E+00 -0.00000000000E+00 -0.90839645736E+01  0.90839645736E+01  0.00000000000E+00 0.  1.
          4    1    1    2  501    0  0.68221751842E+00 -0.16252133416E+01 -0.18741819597E+01  0.28691805740E+01  0.12700000000E+01 0. -1.
         -4    1    1    2    0  501 -0.68221751842E+00  0.16252133416E+01 -0.65364996377E+01  0.68880669757E+01  0.12700000000E+01 0.  1.
<mgrwt>
<rscale>  0 0.21724730E+01</rscale>
<asrwt>0</asrwt>
<pdfrwt beam="1">0</pdfrwt>
<pdfrwt beam="2">0</pdfrwt>
<totfact> 0.27955478E+12</totfact>
</mgrwt>
</event>
<event>
 4    1  0.1750553E+006  0.2008118E+01  0.7546771E-02  0.2975269E+00
         22   -1    0    0    0    0  0.00000000000E+00  0.00000000000E+00  0.17726848923E+01  0.17726848923E+01  0.00000000000E+00 0. -1.
         22   -1    0    0    0    0 -0.00000000000E+00 -0.00000000000E+00 -0.25194189799E+01  0.25194189799E+01  0.00000000000E+00 0.  1.
          4    1    1    2  501    0 -0.25880536812E+00 -0.15338374488E+01  0.29531260536E+00  0.20297160079E+01  0.12700000000E+01 0.  1.
         -4    1    1    2    0  501  0.25880536812E+00  0.15338374488E+01 -0.10420466930E+01  0.22623878643E+01  0.12700000000E+01 0. -1.
<mgrwt>
<rscale>  0 0.20081179E+01</rscale>
<asrwt>0</asrwt>
<pdfrwt beam="1">0</pdfrwt>
<pdfrwt beam="2">0</pdfrwt>
<totfact> 0.42128293E+12</totfact>
</mgrwt>
</event>
<event>
 4    1  0.1750553E+006  0.2466843E+01  0.7546771E-02  0.2723331E+00
         22   -1    0    0    0    0  0.00000000000E+00  0.00000000000E+00  0.18067481698E+01  0.18067481698E+01  0.00000000000E+00 0.  1.
         22   -1    0    0    0    0 -0.00000000000E+00 -0.00000000000E+00 -0.35143926522E+01  0.35143926522E+01  0.00000000000E+00 0.  1.
          4    1    1    2  501    0 -0.14935126290E+01  0.14972752717E+01 -0.31100077990E+00  0.24863697829E+01  0.12700000000E+01 0.  1.
         -4    1    1    2    0  501  0.14935126290E+01 -0.14972752717E+01 -0.13966437025E+01  0.28347710391E+01  0.12700000000E+01 0.  1.
<mgrwt>
<rscale>  0 0.24668428E+01</rscale>
<asrwt>0</asrwt>
<pdfrwt beam="1">0</pdfrwt>
<pdfrwt beam="2">0</pdfrwt>
<totfact> 0.27940316E+12</totfact>
</mgrwt>
</event>
<event>
 4    1  0.1750553E+006  0.2151704E+01  0.7546771E-02  0.2885343E+00
         22   -1    0    0    0    0  0.00000000000E+00  0.00000000000E+00  0.12351473472E+02  0.12351473472E+02  0.00000000000E+00 0. -1.
         22   -1    0    0    0    0 -0.00000000000E+00 -0.00000000000E+00 -0.14136995565E+01  0.14136995565E+01  0.00000000000E+00 0. -1.
          4    1    1    2  501    0 -0.15648474889E+01 -0.75377806659E+00  0.11368879897E+02  0.11570706942E+02  0.12700000000E+01 0. -1.
         -4    1    1    2    0  501  0.15648474889E+01  0.75377806659E+00 -0.43110598118E+00  0.21944660864E+01  0.12700000000E+01 0. -1.
<mgrwt>
<rscale>  0 0.21517038E+01</rscale>
<asrwt>0</asrwt>
<pdfrwt beam="1">0</pdfrwt>
<pdfrwt beam="2">0</pdfrwt>
<totfact> 0.82555440E+11</totfact>
</mgrwt>
</event>
<event>
 4    1  0.1750553E+006  0.2488487E+01  0.7546771E-02  0.2713627E+00
         22   -1    0    0    0    0  0.00000000000E+00  0.00000000000E+00  0.93729093099E+00  0.93729093099E+00  0.00000000000E+00 0.  1.
         22   -1    0    0    0    0 -0.00000000000E+00 -0.00000000000E+00 -0.10197771722E+02  0.10197771722E+02  0.00000000000E+00 0. -1.
          4    1    1    2  501    0 -0.20781049265E+01  0.51102825215E+00 -0.13264605434E+01  0.28199410514E+01  0.12700000000E+01 0.  1.
         -4    1    1    2    0  501  0.20781049265E+01 -0.51102825215E+00 -0.79340202477E+01  0.83151216017E+01  0.12700000000E+01 0. -1.
<mgrwt>
<rscale>  0 0.24884875E+01</rscale>
<asrwt>0</asrwt>
<pdfrwt beam="1">0</pdfrwt>
<pdfrwt beam="2">0</pdfrwt>
<totfact> 0.16684623E+12</totfact>
</mgrwt>
</event>
<event>
 4    1  0.1750553E+006  0.3026876E+01  0.7546771E-02  0.2513755E+00
         22   -1    0    0    0    0  0.00000000000E+00  0.00000000000E+00  0.97341429984E+01  0.97341429984E+01  0.00000000000E+00 0. -1.
         22   -1    0    0    0    0 -0.00000000000E+00 -0.00000000000E+00 -0.96876973074E+00  0.96876973074E+00  0.00000000000E+00 0. -1.
          4    1    1    2  501    0 -0.27467161402E+01 -0.68035001742E-01  0.52851170247E+01  0.60905205263E+01  0.12700000000E+01 0. -1.
         -4    1    1    2    0  501  0.27467161402E+01  0.68035001742E-01  0.34802562429E+01  0.46123922028E+01  0.12700000000E+01 0. -1.
<mgrwt>
<rscale>  0 0.30268760E+01</rscale>
<asrwt>0</asrwt>
<pdfrwt beam="1">0</pdfrwt>
<pdfrwt beam="2">0</pdfrwt>
<totfact> 0.16999009E+12</totfact>
</mgrwt>
</event>
<event>
 4    1  0.1750553E+006  0.2048959E+01  0.7546771E-02  0.2948442E+00
         22   -1    0    0    0    0  0.00000000000E+00  0.00000000000E+00  0.25932541430E+01  0.25932541430E+01  0.00000000000E+00 0. -1.
         22   -1    0    0    0    0 -0.00000000000E+00 -0.00000000000E+00 -0.17083314621E+02  0.17083314621E+02  0.00000000000E+00 0.  1.
          4    1    1    2  501    0  0.15538168329E+01  0.41350693673E+00  0.21154894349E+01  0.29450857859E+01  0.12700000000E+01 0. -1.
         -4    1    1    2    0  501 -0.15538168329E+01 -0.41350693673E+00 -0.16605549913E+02  0.16731482978E+02  0.12700000000E+01 0.  1.
<mgrwt>
<rscale>  0 0.20489594E+01</rscale>
<asrwt>0</asrwt>
<pdfrwt beam="1">0</pdfrwt>
<pdfrwt beam="2">0</pdfrwt>
<totfact> 0.27472200E+11</totfact>
</mgrwt>
</event>
<event>
 4    1  0.1750553E+006  0.3497639E+01  0.7546771E-02  0.2385014E+00
         22   -1    0    0    0    0  0.00000000000E+00  0.00000000000E+00  0.62788528520E+02  0.62788528520E+02  0.00000000000E+00 0.  1.
         22   -1    0    0    0    0 -0.00000000000E+00 -0.00000000000E+00 -0.22707544132E+00  0.22707544132E+00  0.00000000000E+00 0. -1.
          4    1    1    2  501    0 -0.94675666178E+00 -0.31183701893E+01  0.43152761335E+02  0.43294275507E+02  0.12700000000E+01 0.  1.
         -4    1    1    2    0  501  0.94675666178E+00  0.31183701893E+01  0.19408691744E+02  0.19721328455E+02  0.12700000000E+01 0. -1.
<mgrwt>
<rscale>  0 0.34976393E+01</rscale>
<asrwt>0</asrwt>
<pdfrwt beam="1">0</pdfrwt>
<pdfrwt beam="2">0</pdfrwt>
<totfact> 0.82541259E+11</totfact>
</mgrwt>
</event>
<event>
 4    1  0.1750553E+006  0.2418982E+01  0.7546771E-02  0.2745363E+00
         22   -1    0    0    0    0  0.00000000000E+00  0.00000000000E+00  0.40513056736E+01  0.40513056736E+01  0.00000000000E+00 0.  1.
         22   -1    0    0    0    0 -0.00000000000E+00 -0.00000000000E+00 -0.14548393929E+01  0.14548393929E+01  0.00000000000E+00 0.  1.
          4    1    1    2  501    0 -0.15512687319E+01  0.13535658811E+01  0.10643877977E+01  0.26428009113E+01  0.12700000000E+01 0.  1.
         -4    1    1    2    0  501  0.15512687319E+01 -0.13535658811E+01  0.15320784830E+01  0.28633441552E+01  0.12700000000E+01 0.  1.
<mgrwt>
<rscale>  0 0.24189823E+01</rscale>
<asrwt>0</asrwt>
<pdfrwt beam="1">0</pdfrwt>
<pdfrwt beam="2">0</pdfrwt>
<totfact> 0.30346313E+12</totfact>
</mgrwt>
</event>
<event>
 4    1  0.1750553E+006  0.3716999E+01  0.7546771E-02  0.2334891E+00
         22   -1    0    0    0    0  0.00000000000E+00  0.00000000000E+00  0.23846360410E+01  0.23846360410E+01  0.00000000000E+00 0. -1.
         22   -1    0    0    0    0 -0.00000000000E+00 -0.00000000000E+00 -0.68822417500E+01  0.68822417500E+01  0.00000000000E+00 0.  1.
          4    1    1    2  501    0 -0.12764082714E+01 -0.32517626113E+01 -0.40615111746E+00  0.37391224754E+01  0.12700000000E+01 0. -1.
         -4    1    1    2    0  501  0.12764082714E+01  0.32517626113E+01 -0.40914545915E+01  0.55277553157E+01  0.12700000000E+01 0.  1.
<mgrwt>
<rscale>  0 0.37169985E+01</rscale>
<asrwt>0</asrwt>
<pdfrwt beam="1">0</pdfrwt>
<pdfrwt beam="2">0</pdfrwt>
<totfact> 0.91440347E+11</totfact>
</mgrwt>
</event>
<event>
 4    1  0.1750553E+006  0.2845965E+01  0.7546771E-02  0.2573218E+00
         22   -1    0    0    0    0  0.00000000000E+00  0.00000000000E+00  0.87269740456E+01  0.87269740456E+01  0.00000000000E+00 0. -1.
         22   -1    0    0    0    0 -0.00000000000E+00 -0.00000000000E+00 -0.64660949198E+01  0.64660949198E+01  0.00000000000E+00 0.  1.
          4    1    1    2  501    0  0.25354330379E+01 -0.24123617002E+00  0.81606884931E+01  0.86427051472E+01  0.12700000000E+01 0. -1.
         -4    1    1    2    0  501 -0.25354330379E+01  0.24123617002E+00 -0.58998093673E+01  0.65503638182E+01  0.12700000000E+01 0.  1.
<mgrwt>
<rscale>  0 0.28459648E+01</rscale>
<asrwt>0</asrwt>
<pdfrwt beam="1">0</pdfrwt>
<pdfrwt beam="2">0</pdfrwt>
<totfact> 0.21262697E+11</totfact>
</mgrwt>
</event>
<event>
 4    1  0.1750553E+006  0.3798270E+01  0.7546771E-02  0.2317598E+00
         22   -1    0    0    0    0  0.00000000000E+00  0.00000000000E+00  0.13350776800E+02  0.13350776800E+02  0.00000000000E+00 0. -1.
         22   -1    0    0    0    0 -0.00000000000E+00 -0.00000000000E+00 -0.10987436881E+01  0.10987436881E+01  0.00000000000E+00 0.  1.
          4    1    1    2  501    0 -0.26148809774E+01 -0.24446582006E+01  0.70544096530E+01  0.80119630426E+01  0.12700000000E+01 0.  1.
         -4    1    1    2    0  501  0.26148809774E+01  0.24446582006E+01  0.51976234586E+01  0.64375574453E+01  0.12700000000E+01 0. -1.
<mgrwt>
<rscale>  0 0.37982702E+01</rscale>
<asrwt>0</asrwt>
<pdfrwt beam="1">0</pdfrwt>
<pdfrwt beam="2">0</pdfrwt>
<totfact> 0.10022476E+12</totfact>
</mgrwt>
</event>
<event>
 4    1  0.1750553E+006  0.3226814E+01  0.7546771E-02  0.2455025E+00
         22   -1    0    0    0    0  0.00000000000E+00  0.00000000000E+00  0.48745768792E+02  0.48745768792E+02  0.00000000000E+00 0.  1.
         22   -1    0    0    0    0 -0.00000000000E+00 -0.00000000000E+00 -0.21360778190E+00  0.21360778190E+00  0.00000000000E+00 0. -1.
          4    1    1    2  501    0  0.14576413798E+01  0.25835457286E+01  0.24173594855E+02  0.24388009659E+02  0.12700000000E+01 0. -1.
         -4    1    1    2    0  501 -0.14576413798E+01 -0.25835457286E+01  0.24358566156E+02  0.24571366915E+02  0.12700000000E+01 0.  1.
<mgrwt>
<rscale>  0 0.32268137E+01</rscale>
<asrwt>0</asrwt>
<pdfrwt beam="1">0</pdfrwt>
<pdfrwt beam="2">0</pdfrwt>
<totfact> 0.12373969E+12</totfact>
</mgrwt>
</event>
<event>
 4    1  0.1750553E+006  0.2014758E+01  0.7546771E-02  0.2970835E+00
         22   -1    0    0    0    0  0.00000000000E+00  0.00000000000E+00  0.12089402134E+03  0.12089402134E+03  0.00000000000E+00 0. -1.
         22   -1    0    0    0    0 -0.00000000000E+00 -0.00000000000E+00 -0.16356299324E+00  0.16356299324E+00  0.00000000000E+00 0.  1.
          4    1    1    2  501    0 -0.86789579751E+00 -0.13011940893E+01  0.11432472599E+03  0.11434247776E+03  0.12700000000E+01 0. -1.
         -4    1    1    2    0  501  0.86789579751E+00  0.13011940893E+01  0.64057323598E+01  0.67151065695E+01  0.12700000000E+01 0.  1.
<mgrwt>
<rscale>  0 0.20147578E+01</rscale>
<asrwt>0</asrwt>
<pdfrwt beam="1">0</pdfrwt>
<pdfrwt beam="2">0</pdfrwt>
<totfact> 0.47910078E+11</totfact>
</mgrwt>
</event>
<event>
 4    1  0.1750553E+006  0.2599266E+01  0.7546771E-02  0.2666321E+00
         22   -1    0    0    0    0  0.00000000000E+00  0.00000000000E+00  0.92467406002E+00  0.92467406002E+00  0.00000000000E+00 0. -1.
         22   -1    0    0    0    0 -0.00000000000E+00 -0.00000000000E+00 -0.75223091361E+01  0.75223091361E+01  0.00000000000E+00 0.  1.
          4    1    1    2  501    0  0.97040528000E-03  0.22678805254E+01 -0.40140947141E+01  0.47821689005E+01  0.12700000000E+01 0.  1.
         -4    1    1    2    0  501 -0.97040528000E-03 -0.22678805254E+01 -0.25835403620E+01  0.36648142956E+01  0.12700000000E+01 0. -1.
<mgrwt>
<rscale>  0 0.25992659E+01</rscale>
<asrwt>0</asrwt>
<pdfrwt beam="1">0</pdfrwt>
<pdfrwt beam="2">0</pdfrwt>
<totfact> 0.24451682E+12</totfact>
</mgrwt>
</event>
<event>
 4    1  0.1750553E+006  0.2213616E+01  0.7546771E-02  0.2850055E+00
         22   -1    0    0    0    0  0.00000000000E+00  0.00000000000E+00  0.43871850136E+02  0.43871850136E+02  0.00000000000E+00 0. -1.
         22   -1    0    0    0    0 -0.00000000000E+00 -0.00000000000E+00 -0.13935736611E+00  0.13935736611E+00  0.00000000000E+00 0. -1.
          4    1    1    2  501    0 -0.17600749454E+01  0.43512329612E+00  0.31671152477E+02  0.31748417210E+02  0.12700000000E+01 0. -1.
         -4    1    1    2    0  501  0.17600749454E+01 -0.43512329612E+00  0.12061340292E+02  0.12262790292E+02  0.12700000000E+01 0. -1.
<mgrwt>
<rscale>  0 0.22136161E+01</rscale>
<asrwt>0</asrwt>
<pdfrwt beam="1">0</pdfrwt>
<pdfrwt beam="2">0</pdfrwt>
<totfact> 0.22857675E+12</totfact>
</mgrwt>
</event>
<event>
 4    1  0.1750553E+006  0.2138137E+01  0.7546771E-02  0.2893339E+00
         22   -1    0    0    0    0  0.00000000000E+00  0.00000000000E+00  0.29389598434E+00  0.29389598434E+00  0.00000000000E+00 0. -1.
         22   -1    0    0    0    0 -0.00000000000E+00 -0.00000000000E+00 -0.46630002935E+02  0.46630002935E+02  0.00000000000E+00 0. -1.
          4    1    1    2  501    0  0.18770797568E+00 -0.17098231782E+01 -0.40151279983E+01  0.45489430011E+01  0.12700000000E+01 0. -1.
         -4    1    1    2    0  501 -0.18770797568E+00  0.17098231782E+01 -0.42320978953E+02  0.42374955918E+02  0.12700000000E+01 0. -1.
<mgrwt>
<rscale>  0 0.21381369E+01</rscale>
<asrwt>0</asrwt>
<pdfrwt beam="1">0</pdfrwt>
<pdfrwt beam="2">0</pdfrwt>
<totfact> 0.91784876E+11</totfact>
</mgrwt>
</event>
<event>
 4    1  0.1750553E+006  0.2282729E+01  0.7546771E-02  0.2812829E+00
         22   -1    0    0    0    0  0.00000000000E+00  0.00000000000E+00  0.88218683450E+00  0.88218683450E+00  0.00000000000E+00 0. -1.
         22   -1    0    0    0    0 -0.00000000000E+00 -0.00000000000E+00 -0.61941265926E+01  0.61941265926E+01  0.00000000000E+00 0.  1.
          4    1    1    2  501    0  0.17466890020E+00  0.18887672270E+01 -0.18938591927E+01  0.29660670094E+01  0.12700000000E+01 0.  1.
         -4    1    1    2    0  501 -0.17466890020E+00 -0.18887672270E+01 -0.34180805654E+01  0.41102464177E+01  0.12700000000E+01 0. -1.
<mgrwt>
<rscale>  0 0.22827288E+01</rscale>
<asrwt>0</asrwt>
<pdfrwt beam="1">0</pdfrwt>
<pdfrwt beam="2">0</pdfrwt>
<totfact> 0.32540395E+12</totfact>
</mgrwt>
</event>
<event>
 4    1  0.1750553E+006  0.2171686E+01  0.7546771E-02  0.2873742E+00
         22   -1    0    0    0    0  0.00000000000E+00  0.00000000000E+00  0.42152959794E+01  0.42152959794E+01  0.00000000000E+00 0.  1.
         22   -1    0    0    0    0 -0.00000000000E+00 -0.00000000000E+00 -0.12107473624E+01  0.12107473624E+01  0.00000000000E+00 0.  1.
          4    1    1    2  501    0  0.14287142351E+01  0.10305812966E+01  0.75477185507E+00  0.22991091160E+01  0.12700000000E+01 0.  1.
         -4    1    1    2    0  501 -0.14287142351E+01 -0.10305812966E+01  0.22497767619E+01  0.31269342258E+01  0.12700000000E+01 0.  1.
<mgrwt>
<rscale>  0 0.21716865E+01</rscale>
<asrwt>0</asrwt>
<pdfrwt beam="1">0</pdfrwt>
<pdfrwt beam="2">0</pdfrwt>
<totfact> 0.35756305E+12</totfact>
</mgrwt>
</event>
<event>
 4    1  0.1750553E+006  0.3113807E+01  0.7546771E-02  0.2487395E+00
         22   -1    0    0    0    0  0.00000000000E+00  0.00000000000E+00  0.58619008517E+01  0.58619008517E+01  0.00000000000E+00 0.  1.
         22   -1    0    0    0    0 -0.00000000000E+00 -0.00000000000E+00 -0.13278726373E+02  0.13278726373E+02  0.00000000000E+00 0. -1.
          4    1    1    2  501    0 -0.18965070650E+01 -0.21180551951E+01  0.52460317581E+01  0.61005447351E+01  0.12700000000E+01 0.  1.
         -4    1    1    2    0  501  0.18965070650E+01  0.21180551951E+01 -0.12662857280E+02  0.13040082490E+02  0.12700000000E+01 0. -1.
<mgrwt>
<rscale>  0 0.31138075E+01</rscale>
<asrwt>0</asrwt>
<pdfrwt beam="1">0</pdfrwt>
<pdfrwt beam="2">0</pdfrwt>
<totfact> 0.14355077E+11</totfact>
</mgrwt>
</event>
<event>
 4    1  0.1750553E+006  0.2668095E+01  0.7546771E-02  0.2638762E+00
         22   -1    0    0    0    0  0.00000000000E+00  0.00000000000E+00  0.15745037157E+01  0.15745037157E+01  0.00000000000E+00 0. -1.
         22   -1    0    0    0    0 -0.00000000000E+00 -0.00000000000E+00 -0.48287175860E+01  0.48287175860E+01  0.00000000000E+00 0.  1.
          4    1    1    2  501    0 -0.23425701936E+01  0.13489334883E+00 -0.81922218508E+00  0.27910314072E+01  0.12700000000E+01 0. -1.
         -4    1    1    2    0  501  0.23425701936E+01 -0.13489334883E+00 -0.24349916852E+01  0.36121898946E+01  0.12700000000E+01 0.  1.
<mgrwt>
<rscale>  0 0.26680951E+01</rscale>
<asrwt>0</asrwt>
<pdfrwt beam="1">0</pdfrwt>
<pdfrwt beam="2">0</pdfrwt>
<totfact> 0.22524276E+12</totfact>
</mgrwt>
</event>
<event>
 4    1  0.1750553E+006  0.2100541E+01  0.7546771E-02  0.2916016E+00
         22   -1    0    0    0    0  0.00000000000E+00  0.00000000000E+00  0.23362589851E+01  0.23362589851E+01  0.00000000000E+00 0. -1.
         22   -1    0    0    0    0 -0.00000000000E+00 -0.00000000000E+00 -0.19490389040E+01  0.19490389040E+01  0.00000000000E+00 0. -1.
          4    1    1    2  501    0  0.14284068357E+01  0.87122029091E+00  0.57090443216E+00  0.21767413154E+01  0.12700000000E+01 0. -1.
         -4    1    1    2    0  501 -0.14284068357E+01 -0.87122029091E+00 -0.18368435105E+00  0.21085565737E+01  0.12700000000E+01 0. -1.
<mgrwt>
<rscale>  0 0.21005406E+01</rscale>
<asrwt>0</asrwt>
<pdfrwt beam="1">0</pdfrwt>
<pdfrwt beam="2">0</pdfrwt>
<totfact> 0.41218171E+12</totfact>
</mgrwt>
</event>
<event>
 4    1  0.1750553E+006  0.2975577E+01  0.7546771E-02  0.2529954E+00
         22   -1    0    0    0    0  0.00000000000E+00  0.00000000000E+00  0.51481579147E+01  0.51481579147E+01  0.00000000000E+00 0. -1.
         22   -1    0    0    0    0 -0.00000000000E+00 -0.00000000000E+00 -0.54891371470E+01  0.54891371470E+01  0.00000000000E+00 0. -1.
          4    1    1    2  501    0  0.14350282610E+01 -0.22763687835E+01  0.42368727992E+01  0.51773692224E+01  0.12700000000E+01 0. -1.
         -4    1    1    2    0  501 -0.14350282610E+01  0.22763687835E+01 -0.45778520314E+01  0.54599258393E+01  0.12700000000E+01 0. -1.
<mgrwt>
<rscale>  0 0.29755774E+01</rscale>
<asrwt>0</asrwt>
<pdfrwt beam="1">0</pdfrwt>
<pdfrwt beam="2">0</pdfrwt>
<totfact> 0.48541644E+11</totfact>
</mgrwt>
</event>
<event>
 4    1  0.1750553E+006  0.2957254E+01  0.7546771E-02  0.2535863E+00
         22   -1    0    0    0    0  0.00000000000E+00  0.00000000000E+00  0.12126703580E+01  0.12126703580E+01  0.00000000000E+00 0.  1.
         22   -1    0    0    0    0 -0.00000000000E+00 -0.00000000000E+00 -0.74508505560E+01  0.74508505560E+01  0.00000000000E+00 0. -1.
          4    1    1    2  501    0 -0.10064560334E+01 -0.24737621774E+01 -0.23429440620E+01  0.37728954313E+01  0.12700000000E+01 0.  1.
         -4    1    1    2    0  501  0.10064560334E+01  0.24737621774E+01 -0.38952361359E+01  0.48906254827E+01  0.12700000000E+01 0. -1.
<mgrwt>
<rscale>  0 0.29572543E+01</rscale>
<asrwt>0</asrwt>
<pdfrwt beam="1">0</pdfrwt>
<pdfrwt beam="2">0</pdfrwt>
<totfact> 0.18141553E+12</totfact>
</mgrwt>
</event>
<event>
 4    1  0.1750553E+006  0.4292613E+01  0.7546771E-02  0.2224623E+00
         22   -1    0    0    0    0  0.00000000000E+00  0.00000000000E+00  0.33273384570E+01  0.33273384570E+01  0.00000000000E+00 0.  1.
         22   -1    0    0    0    0 -0.00000000000E+00 -0.00000000000E+00 -0.20450509934E+02  0.20450509934E+02  0.00000000000E+00 0. -1.
          4    1    1    2  501    0  0.17829354440E+01  0.36925287430E+01  0.15907753325E+01  0.45778918154E+01  0.12700000000E+01 0.  1.
         -4    1    1    2    0  501 -0.17829354440E+01 -0.36925287430E+01 -0.18713946809E+02  0.19199956575E+02  0.12700000000E+01 0. -1.
<mgrwt>
<rscale>  0 0.42926131E+01</rscale>
<asrwt>0</asrwt>
<pdfrwt beam="1">0</pdfrwt>
<pdfrwt beam="2">0</pdfrwt>
<totfact> 0.16422428E+11</totfact>
</mgrwt>
</event>
<event>
 4    1  0.1750553E+006  0.2275344E+01  0.7546771E-02  0.2816703E+00
         22   -1    0    0    0    0  0.00000000000E+00  0.00000000000E+00  0.38910462578E+00  0.38910462578E+00  0.00000000000E+00 0.  1.
         22   -1    0    0    0    0 -0.00000000000E+00 -0.00000000000E+00 -0.13322803630E+02  0.13322803630E+02  0.00000000000E+00 0. -1.
          4    1    1    2  501    0 -0.18599557758E+01 -0.32381543016E+00 -0.62190419064E+01  0.66222106697E+01  0.12700000000E+01 0. -1.
         -4    1    1    2    0  501  0.18599557758E+01  0.32381543016E+00 -0.67146570980E+01  0.70896975863E+01  0.12700000000E+01 0.  1.
<mgrwt>
<rscale>  0 0.22753444E+01</rscale>
<asrwt>0</asrwt>
<pdfrwt beam="1">0</pdfrwt>
<pdfrwt beam="2">0</pdfrwt>
<totfact> 0.32610085E+12</totfact>
</mgrwt>
</event>
<event>
 4    1  0.1750553E+006  0.2583863E+01  0.7546771E-02  0.2672674E+00
         22   -1    0    0    0    0  0.00000000000E+00  0.00000000000E+00  0.60582011955E+00  0.60582011955E+00  0.00000000000E+00 0.  1.
         22   -1    0    0    0    0 -0.00000000000E+00 -0.00000000000E+00 -0.11650015584E+02  0.11650015584E+02  0.00000000000E+00 0. -1.
          4    1    1    2  501    0 -0.21171428069E+01  0.76233452931E+00 -0.40974552635E+01  0.48441188297E+01  0.12700000000E+01 0.  1.
         -4    1    1    2    0  501  0.21171428069E+01 -0.76233452931E+00 -0.69467402006E+01  0.74117168735E+01  0.12700000000E+01 0. -1.
<mgrwt>
<rscale>  0 0.25838629E+01</rscale>
<asrwt>0</asrwt>
<pdfrwt beam="1">0</pdfrwt>
<pdfrwt beam="2">0</pdfrwt>
<totfact> 0.23306775E+12</totfact>
</mgrwt>
</event>
<event>
 4    1  0.1750553E+006  0.2755925E+01  0.7546771E-02  0.2605433E+00
         22   -1    0    0    0    0  0.00000000000E+00  0.00000000000E+00  0.54497447780E+00  0.54497447780E+00  0.00000000000E+00 0. -1.
         22   -1    0    0    0    0 -0.00000000000E+00 -0.00000000000E+00 -0.14104315972E+02  0.14104315972E+02  0.00000000000E+00 0.  1.
          4    1    1    2  501    0 -0.20919191288E+01 -0.12673186967E+01 -0.59810803217E+01  0.65854722029E+01  0.12700000000E+01 0.  1.
         -4    1    1    2    0  501  0.20919191288E+01  0.12673186967E+01 -0.75782611726E+01  0.80638182471E+01  0.12700000000E+01 0. -1.
<mgrwt>
<rscale>  0 0.27559249E+01</rscale>
<asrwt>0</asrwt>
<pdfrwt beam="1">0</pdfrwt>
<pdfrwt beam="2">0</pdfrwt>
<totfact> 0.20796858E+12</totfact>
</mgrwt>
</event>
<event>
 4    1  0.1750553E+006  0.2126332E+01  0.7546771E-02  0.2900376E+00
         22   -1    0    0    0    0  0.00000000000E+00  0.00000000000E+00  0.61737137718E+00  0.61737137718E+00  0.00000000000E+00 0. -1.
         22   -1    0    0    0    0 -0.00000000000E+00 -0.00000000000E+00 -0.73474043616E+01  0.73474043616E+01  0.00000000000E+00 0.  1.
          4    1    1    2  501    0  0.54927639872E+00 -0.16145225913E+01 -0.35924102104E+01  0.41745297795E+01  0.12700000000E+01 0. -1.
         -4    1    1    2    0  501 -0.54927639872E+00  0.16145225913E+01 -0.31376227741E+01  0.37902459594E+01  0.12700000000E+01 0.  1.
<mgrwt>
<rscale>  0 0.21263320E+01</rscale>
<asrwt>0</asrwt>
<pdfrwt beam="1">0</pdfrwt>
<pdfrwt beam="2">0</pdfrwt>
<totfact> 0.39804085E+12</totfact>
</mgrwt>
</event>
<event>
 4    1  0.1750553E+006  0.2060504E+01  0.7546771E-02  0.2941048E+00
         22   -1    0    0    0    0  0.00000000000E+00  0.00000000000E+00  0.64936451827E+01  0.64936451827E+01  0.00000000000E+00 0.  1.
         22   -1    0    0    0    0 -0.00000000000E+00 -0.00000000000E+00 -0.77989882891E+00  0.77989882891E+00  0.00000000000E+00 0. -1.
          4    1    1    2  501    0  0.16109139073E+01  0.19424965057E+00  0.13946366118E+01  0.24881092867E+01  0.12700000000E+01 0.  1.
         -4    1    1    2    0  501 -0.16109139073E+01 -0.19424965057E+00  0.43191097420E+01  0.47854347249E+01  0.12700000000E+01 0. -1.
<mgrwt>
<rscale>  0 0.20605040E+01</rscale>
<asrwt>0</asrwt>
<pdfrwt beam="1">0</pdfrwt>
<pdfrwt beam="2">0</pdfrwt>
<totfact> 0.35389160E+12</totfact>
</mgrwt>
</event>
<event>
 4    1  0.1750553E+006  0.2540970E+01  0.7546771E-02  0.2690739E+00
         22   -1    0    0    0    0  0.00000000000E+00  0.00000000000E+00  0.11154144140E+01  0.11154144140E+01  0.00000000000E+00 0.  1.
         22   -1    0    0    0    0 -0.00000000000E+00 -0.00000000000E+00 -0.73432405055E+01  0.73432405055E+01  0.00000000000E+00 0. -1.
          4    1    1    2  501    0 -0.21833837686E+01  0.27651712510E+00 -0.11678242826E+01  0.27964870743E+01  0.12700000000E+01 0.  1.
         -4    1    1    2    0  501  0.21833837686E+01 -0.27651712510E+00 -0.50600018090E+01  0.56621678453E+01  0.12700000000E+01 0. -1.
<mgrwt>
<rscale>  0 0.25409696E+01</rscale>
<asrwt>0</asrwt>
<pdfrwt beam="1">0</pdfrwt>
<pdfrwt beam="2">0</pdfrwt>
<totfact> 0.20314747E+12</totfact>
</mgrwt>
</event>
<event>
 4    1  0.1750553E+006  0.3525806E+01  0.7546771E-02  0.2378276E+00
         22   -1    0    0    0    0  0.00000000000E+00  0.00000000000E+00  0.34466179143E+01  0.34466179143E+01  0.00000000000E+00 0.  1.
         22   -1    0    0    0    0 -0.00000000000E+00 -0.00000000000E+00 -0.37973018650E+01  0.37973018650E+01  0.00000000000E+00 0.  1.
          4    1    1    2  501    0 -0.26778311955E+01 -0.19098755836E+01  0.63588319198E+00  0.35826878304E+01  0.12700000000E+01 0.  1.
         -4    1    1    2    0  501  0.26778311955E+01  0.19098755836E+01 -0.98656714261E+00  0.36612319489E+01  0.12700000000E+01 0.  1.
<mgrwt>
<rscale>  0 0.35258055E+01</rscale>
<asrwt>0</asrwt>
<pdfrwt beam="1">0</pdfrwt>
<pdfrwt beam="2">0</pdfrwt>
<totfact> 0.12035736E+12</totfact>
</mgrwt>
</event>
<event>
 4    1  0.1750553E+006  0.2368075E+01  0.7546771E-02  0.2769712E+00
         22   -1    0    0    0    0  0.00000000000E+00  0.00000000000E+00  0.21514664859E+01  0.21514664859E+01  0.00000000000E+00 0.  1.
         22   -1    0    0    0    0 -0.00000000000E+00 -0.00000000000E+00 -0.31028114279E+01  0.31028114279E+01  0.00000000000E+00 0.  1.
          4    1    1    2  501    0 -0.14836444581E+01 -0.13392823982E+01  0.57504605668E+00  0.24368947839E+01  0.12700000000E+01 0.  1.
         -4    1    1    2    0  501  0.14836444581E+01  0.13392823982E+01 -0.15263909986E+01  0.28173831300E+01  0.12700000000E+01 0.  1.
<mgrwt>
<rscale>  0 0.23680748E+01</rscale>
<asrwt>0</asrwt>
<pdfrwt beam="1">0</pdfrwt>
<pdfrwt beam="2">0</pdfrwt>
<totfact> 0.26413033E+12</totfact>
</mgrwt>
</event>
<event>
 4    1  0.1750553E+006  0.2124852E+01  0.7546771E-02  0.2901263E+00
         22   -1    0    0    0    0  0.00000000000E+00  0.00000000000E+00  0.92052075157E+01  0.92052075157E+01  0.00000000000E+00 0.  1.
         22   -1    0    0    0    0 -0.00000000000E+00 -0.00000000000E+00 -0.14815872952E+01  0.14815872952E+01  0.00000000000E+00 0. -1.
          4    1    1    2  501    0  0.16494705380E+01 -0.42584363847E+00  0.82321335337E+01  0.85019420356E+01  0.12700000000E+01 0.  1.
         -4    1    1    2    0  501 -0.16494705380E+01  0.42584363847E+00 -0.50851331313E+00  0.21848527753E+01  0.12700000000E+01 0. -1.
<mgrwt>
<rscale>  0 0.21248520E+01</rscale>
<asrwt>0</asrwt>
<pdfrwt beam="1">0</pdfrwt>
<pdfrwt beam="2">0</pdfrwt>
<totfact> 0.11176699E+12</totfact>
</mgrwt>
</event>
<event>
 4    1  0.1750553E+006  0.2063325E+01  0.7546771E-02  0.2939253E+00
         22   -1    0    0    0    0  0.00000000000E+00  0.00000000000E+00  0.26052769266E+02  0.26052769266E+02  0.00000000000E+00 0.  1.
         22   -1    0    0    0    0 -0.00000000000E+00 -0.00000000000E+00 -0.23289713121E+00  0.23289713121E+00  0.00000000000E+00 0.  1.
          4    1    1    2  501    0 -0.15460791232E+01 -0.50403243728E+00  0.20088803932E+02  0.20194488178E+02  0.12700000000E+01 0.  1.
         -4    1    1    2    0  501  0.15460791232E+01  0.50403243728E+00  0.57310682027E+01  0.60911782191E+01  0.12700000000E+01 0.  1.
<mgrwt>
<rscale>  0 0.20633248E+01</rscale>
<asrwt>0</asrwt>
<pdfrwt beam="1">0</pdfrwt>
<pdfrwt beam="2">0</pdfrwt>
<totfact> 0.25186101E+12</totfact>
</mgrwt>
</event>
<event>
 4    1  0.1750553E+006  0.3777096E+01  0.7546771E-02  0.2322041E+00
         22   -1    0    0    0    0  0.00000000000E+00  0.00000000000E+00  0.37180381662E+01  0.37180381662E+01  0.00000000000E+00 0.  1.
         22   -1    0    0    0    0 -0.00000000000E+00 -0.00000000000E+00 -0.38378846930E+01  0.38378846930E+01  0.00000000000E+00 0. -1.
          4    1    1    2  501    0 -0.29144313356E+01 -0.20395211085E+01 -0.11420167110E+00  0.37788223540E+01  0.12700000000E+01 0.  1.
         -4    1    1    2    0  501  0.29144313356E+01  0.20395211085E+01 -0.56448556411E-02  0.37771005052E+01  0.12700000000E+01 0. -1.
<mgrwt>
<rscale>  0 0.37770963E+01</rscale>
<asrwt>0</asrwt>
<pdfrwt beam="1">0</pdfrwt>
<pdfrwt beam="2">0</pdfrwt>
<totfact> 0.10874761E+12</totfact>
</mgrwt>
</event>
<event>
 4    1  0.1750553E+006  0.2669888E+01  0.7546771E-02  0.2638061E+00
         22   -1    0    0    0    0  0.00000000000E+00  0.00000000000E+00  0.17921431001E+01  0.17921431001E+01  0.00000000000E+00 0.  1.
         22   -1    0    0    0    0 -0.00000000000E+00 -0.00000000000E+00 -0.57892595651E+01  0.57892595651E+01  0.00000000000E+00 0. -1.
          4    1    1    2  501    0 -0.20843050453E+01  0.10821625009E+01  0.12202208282E+00  0.26726751746E+01  0.12700000000E+01 0.  1.
         -4    1    1    2    0  501  0.20843050453E+01 -0.10821625009E+01 -0.41191385478E+01  0.49087274905E+01  0.12700000000E+01 0. -1.
<mgrwt>
<rscale>  0 0.26698882E+01</rscale>
<asrwt>0</asrwt>
<pdfrwt beam="1">0</pdfrwt>
<pdfrwt beam="2">0</pdfrwt>
<totfact> 0.15644590E+12</totfact>
</mgrwt>
</event>
<event>
 4    1  0.1750553E+006  0.3006638E+01  0.7546771E-02  0.2520086E+00
         22   -1    0    0    0    0  0.00000000000E+00  0.00000000000E+00  0.95809223484E+00  0.95809223484E+00  0.00000000000E+00 0.  1.
         22   -1    0    0    0    0 -0.00000000000E+00 -0.00000000000E+00 -0.53718065911E+02  0.53718065911E+02  0.00000000000E+00 0. -1.
          4    1    1    2  501    0  0.25076435931E+01  0.10670971894E+01 -0.15586449188E+01  0.33866276418E+01  0.12700000000E+01 0.  1.
         -4    1    1    2    0  501 -0.25076435931E+01 -0.10670971894E+01 -0.51201328757E+02  0.51289530504E+02  0.12700000000E+01 0. -1.
<mgrwt>
<rscale>  0 0.30066381E+01</rscale>
<asrwt>0</asrwt>
<pdfrwt beam="1">0</pdfrwt>
<pdfrwt beam="2">0</pdfrwt>
<totfact> 0.20024561E+11</totfact>
</mgrwt>
</event>
<event>
 4    1  0.1750553E+006  0.3175482E+01  0.7546771E-02  0.2469475E+00
         22   -1    0    0    0    0  0.00000000000E+00  0.00000000000E+00  0.21314117255E+00  0.21314117255E+00  0.00000000000E+00 0. -1.
         22   -1    0    0    0    0 -0.00000000000E+00 -0.00000000000E+00 -0.82602574163E+02  0.82602574163E+02  0.00000000000E+00 0.  1.
          4    1    1    2  501    0 -0.28008957181E+01  0.79105550469E+00 -0.14128452723E+02  0.14480913713E+02  0.12700000000E+01 0. -1.
         -4    1    1    2    0  501  0.28008957181E+01 -0.79105550469E+00 -0.68260980267E+02  0.68334801622E+02  0.12700000000E+01 0.  1.
<mgrwt>
<rscale>  0 0.31754820E+01</rscale>
<asrwt>0</asrwt>
<pdfrwt beam="1">0</pdfrwt>
<pdfrwt beam="2">0</pdfrwt>
<totfact> 0.60997054E+11</totfact>
</mgrwt>
</event>
<event>
 4    1  0.1750553E+006  0.2658190E+01  0.7546771E-02  0.2642647E+00
         22   -1    0    0    0    0  0.00000000000E+00  0.00000000000E+00  0.51875687849E+01  0.51875687849E+01  0.00000000000E+00 0.  1.
         22   -1    0    0    0    0 -0.00000000000E+00 -0.00000000000E+00 -0.11564976105E+02  0.11564976105E+02  0.00000000000E+00 0.  1.
          4    1    1    2  501    0  0.23115021114E+01 -0.33171141274E+00  0.46788512828E+01  0.53812288373E+01  0.12700000000E+01 0.  1.
         -4    1    1    2    0  501 -0.23115021114E+01  0.33171141274E+00 -0.11056258603E+02  0.11371316053E+02  0.12700000000E+01 0.  1.
<mgrwt>
<rscale>  0 0.26581901E+01</rscale>
<asrwt>0</asrwt>
<pdfrwt beam="1">0</pdfrwt>
<pdfrwt beam="2">0</pdfrwt>
<totfact> 0.19646591E+11</totfact>
</mgrwt>
</event>
<event>
 4    1  0.1750553E+006  0.2592521E+01  0.7546771E-02  0.2669094E+00
         22   -1    0    0    0    0  0.00000000000E+00  0.00000000000E+00  0.71542391240E+00  0.71542391240E+00  0.00000000000E+00 0.  1.
         22   -1    0    0    0    0 -0.00000000000E+00 -0.00000000000E+00 -0.94618906329E+01  0.94618906329E+01  0.00000000000E+00 0.  1.
          4    1    1    2  501    0 -0.28808890912E+00 -0.22417119056E+01 -0.39443057928E+01  0.47200334400E+01  0.12700000000E+01 0.  1.
         -4    1    1    2    0  501  0.28808890912E+00  0.22417119056E+01 -0.48021609277E+01  0.54572811054E+01  0.12700000000E+01 0.  1.
<mgrwt>
<rscale>  0 0.25925215E+01</rscale>
<asrwt>0</asrwt>
<pdfrwt beam="1">0</pdfrwt>
<pdfrwt beam="2">0</pdfrwt>
<totfact> 0.24842090E+12</totfact>
</mgrwt>
</event>
<event>
 4    1  0.1750553E+006  0.3157615E+01  0.7546771E-02  0.2474602E+00
         22   -1    0    0    0    0  0.00000000000E+00  0.00000000000E+00  0.16476274065E+01  0.16476274065E+01  0.00000000000E+00 0. -1.
         22   -1    0    0    0    0 -0.00000000000E+00 -0.00000000000E+00 -0.60526091428E+01  0.60526091428E+01  0.00000000000E+00 0.  1.
          4    1    1    2  501    0 -0.81263678281E+00 -0.27743925093E+01 -0.22558070454E+01  0.38806182192E+01  0.12700000000E+01 0. -1.
         -4    1    1    2    0  501  0.81263678281E+00  0.27743925093E+01 -0.21491746908E+01  0.38196183302E+01  0.12700000000E+01 0.  1.
<mgrwt>
<rscale>  0 0.31576150E+01</rscale>
<asrwt>0</asrwt>
<pdfrwt beam="1">0</pdfrwt>
<pdfrwt beam="2">0</pdfrwt>
<totfact> 0.16349713E+12</totfact>
</mgrwt>
</event>
<event>
 4    1  0.1750553E+006  0.2180728E+01  0.7546771E-02  0.2868561E+00
         22   -1    0    0    0    0  0.00000000000E+00  0.00000000000E+00  0.13649069536E+02  0.13649069536E+02  0.00000000000E+00 0. -1.
         22   -1    0    0    0    0 -0.00000000000E+00 -0.00000000000E+00 -0.50983566519E+00  0.50983566519E+00  0.00000000000E+00 0.  1.
          4    1    1    2  501    0  0.12292248155E+01 -0.12773720624E+01  0.10553081314E+02  0.10776042792E+02  0.12700000000E+01 0. -1.
         -4    1    1    2    0  501 -0.12292248155E+01  0.12773720624E+01  0.25861525566E+01  0.33828624091E+01  0.12700000000E+01 0.  1.
<mgrwt>
<rscale>  0 0.21807276E+01</rscale>
<asrwt>0</asrwt>
<pdfrwt beam="1">0</pdfrwt>
<pdfrwt beam="2">0</pdfrwt>
<totfact> 0.23343234E+12</totfact>
</mgrwt>
</event>
<event>
 4    1  0.1750553E+006  0.2386845E+01  0.7546771E-02  0.2760621E+00
         22   -1    0    0    0    0  0.00000000000E+00  0.00000000000E+00  0.71521643953E+01  0.71521643953E+01  0.00000000000E+00 0. -1.
         22   -1    0    0    0    0 -0.00000000000E+00 -0.00000000000E+00 -0.24028091644E+01  0.24028091644E+01  0.00000000000E+00 0.  1.
          4    1    1    2  501    0  0.20193819766E+01 -0.78894011628E-01  0.62808212256E+01  0.67190582004E+01  0.12700000000E+01 0. -1.
         -4    1    1    2    0  501 -0.20193819766E+01  0.78894011628E-01 -0.15314659946E+01  0.28359153593E+01  0.12700000000E+01 0.  1.
<mgrwt>
<rscale>  0 0.23868447E+01</rscale>
<asrwt>0</asrwt>
<pdfrwt beam="1">0</pdfrwt>
<pdfrwt beam="2">0</pdfrwt>
<totfact> 0.86557132E+11</totfact>
</mgrwt>
</event>
<event>
 4    1  0.1750553E+006  0.2239205E+01  0.7546771E-02  0.2836017E+00
         22   -1    0    0    0    0  0.00000000000E+00  0.00000000000E+00  0.58061728804E+00  0.58061728804E+00  0.00000000000E+00 0.  1.
         22   -1    0    0    0    0 -0.00000000000E+00 -0.00000000000E+00 -0.12994472877E+02  0.12994472877E+02  0.00000000000E+00 0. -1.
          4    1    1    2  501    0  0.88636299907E+00  0.16172509445E+01 -0.22758174625E+01  0.31927081148E+01  0.12700000000E+01 0.  1.
         -4    1    1    2    0  501 -0.88636299907E+00 -0.16172509445E+01 -0.10138038127E+02  0.10382382051E+02  0.12700000000E+01 0. -1.
<mgrwt>
<rscale>  0 0.22392052E+01</rscale>
<asrwt>0</asrwt>
<pdfrwt beam="1">0</pdfrwt>
<pdfrwt beam="2">0</pdfrwt>
<totfact> 0.21402486E+12</totfact>
</mgrwt>
</event>
<event>
 4    1  0.1750553E+006  0.2366438E+01  0.7546771E-02  0.2770512E+00
         22   -1    0    0    0    0  0.00000000000E+00  0.00000000000E+00  0.16770294540E+01  0.16770294540E+01  0.00000000000E+00 0.  1.
         22   -1    0    0    0    0 -0.00000000000E+00 -0.00000000000E+00 -0.33574326684E+01  0.33574326684E+01  0.00000000000E+00 0. -1.
          4    1    1    2  501    0  0.68832468704E+00  0.18743895044E+01 -0.65497495631E+00  0.24554060932E+01  0.12700000000E+01 0. -1.
         -4    1    1    2    0  501 -0.68832468704E+00 -0.18743895044E+01 -0.10254282581E+01  0.25790560292E+01  0.12700000000E+01 0.  1.
<mgrwt>
<rscale>  0 0.23664376E+01</rscale>
<asrwt>0</asrwt>
<pdfrwt beam="1">0</pdfrwt>
<pdfrwt beam="2">0</pdfrwt>
<totfact> 0.32123871E+12</totfact>
</mgrwt>
</event>
<event>
 4    1  0.1750553E+006  0.2325474E+01  0.7546771E-02  0.2790860E+00
         22   -1    0    0    0    0  0.00000000000E+00  0.00000000000E+00  0.68928078970E-01  0.68928078970E-01  0.00000000000E+00 0. -1.
         22   -1    0    0    0    0 -0.00000000000E+00 -0.00000000000E+00 -0.78779995955E+02  0.78779995955E+02  0.00000000000E+00 0. -1.
          4    1    1    2  501    0  0.19340808138E+01 -0.23293438199E+00 -0.41883507806E+02  0.41948016082E+02  0.12700000000E+01 0. -1.
         -4    1    1    2    0  501 -0.19340808138E+01  0.23293438199E+00 -0.36827560070E+02  0.36900907952E+02  0.12700000000E+01 0. -1.
<mgrwt>
<rscale>  0 0.23254735E+01</rscale>
<asrwt>0</asrwt>
<pdfrwt beam="1">0</pdfrwt>
<pdfrwt beam="2">0</pdfrwt>
<totfact> 0.22776236E+12</totfact>
</mgrwt>
</event>
<event>
 4    1  0.1750553E+006  0.2391969E+01  0.7546771E-02  0.2758162E+00
         22   -1    0    0    0    0  0.00000000000E+00  0.00000000000E+00  0.21384410739E+01  0.21384410739E+01  0.00000000000E+00 0.  1.
         22   -1    0    0    0    0 -0.00000000000E+00 -0.00000000000E+00 -0.27091780064E+01  0.27091780064E+01  0.00000000000E+00 0.  1.
          4    1    1    2  501    0 -0.90542246690E+00 -0.18135115688E+01 -0.15342203441E-01  0.23920178588E+01  0.12700000000E+01 0.  1.
         -4    1    1    2    0  501  0.90542246690E+00  0.18135115688E+01 -0.55539472904E+00  0.24556012215E+01  0.12700000000E+01 0.  1.
<mgrwt>
<rscale>  0 0.23919687E+01</rscale>
<asrwt>0</asrwt>
<pdfrwt beam="1">0</pdfrwt>
<pdfrwt beam="2">0</pdfrwt>
<totfact> 0.31163614E+12</totfact>
</mgrwt>
</event>
<event>
 4    1  0.1750553E+006  0.2225954E+01  0.7546771E-02  0.2843248E+00
         22   -1    0    0    0    0  0.00000000000E+00  0.00000000000E+00  0.82526282269E+01  0.82526282269E+01  0.00000000000E+00 0. -1.
         22   -1    0    0    0    0 -0.00000000000E+00 -0.00000000000E+00 -0.60676684201E+00  0.60676684201E+00  0.00000000000E+00 0.  1.
          4    1    1    2  501    0 -0.12839354296E+01  0.13013383937E+01  0.42767163341E+01  0.48213249636E+01  0.12700000000E+01 0. -1.
         -4    1    1    2    0  501  0.12839354296E+01 -0.13013383937E+01  0.33691450507E+01  0.40380701053E+01  0.12700000000E+01 0.  1.
<mgrwt>
<rscale>  0 0.22259541E+01</rscale>
<asrwt>0</asrwt>
<pdfrwt beam="1">0</pdfrwt>
<pdfrwt beam="2">0</pdfrwt>
<totfact> 0.35309615E+12</totfact>
</mgrwt>
</event>
<event>
 4    1  0.1750553E+006  0.3988123E+01  0.7546771E-02  0.2279571E+00
         22   -1    0    0    0    0  0.00000000000E+00  0.00000000000E+00  0.16259839247E+02  0.16259839247E+02  0.00000000000E+00 0. -1.
         22   -1    0    0    0    0 -0.00000000000E+00 -0.00000000000E+00 -0.27211822962E+01  0.27211822962E+01  0.00000000000E+00 0.  1.
          4    1    1    2  501    0 -0.24293935044E+01  0.28965961983E+01  0.14364877829E+02  0.14908213756E+02  0.12700000000E+01 0. -1.
         -4    1    1    2    0  501  0.24293935044E+01 -0.28965961983E+01 -0.82622087832E+00  0.40728077876E+01  0.12700000000E+01 0.  1.
<mgrwt>
<rscale>  0 0.39881227E+01</rscale>
<asrwt>0</asrwt>
<pdfrwt beam="1">0</pdfrwt>
<pdfrwt beam="2">0</pdfrwt>
<totfact> 0.27613194E+11</totfact>
</mgrwt>
</event>
<event>
 4    1  0.1750553E+006  0.2894009E+01  0.7546771E-02  0.2556773E+00
         22   -1    0    0    0    0  0.00000000000E+00  0.00000000000E+00  0.12516870962E+02  0.12516870962E+02  0.00000000000E+00 0.  1.
         22   -1    0    0    0    0 -0.00000000000E+00 -0.00000000000E+00 -0.95996527586E+00  0.95996527586E+00  0.00000000000E+00 0. -1.
          4    1    1    2  501    0 -0.20912196209E+01  0.15457006373E+01  0.94874894959E+01  0.99190597789E+01  0.12700000000E+01 0.  1.
         -4    1    1    2    0  501  0.20912196209E+01 -0.15457006373E+01  0.20694161900E+01  0.35577764587E+01  0.12700000000E+01 0. -1.
<mgrwt>
<rscale>  0 0.28940093E+01</rscale>
<asrwt>0</asrwt>
<pdfrwt beam="1">0</pdfrwt>
<pdfrwt beam="2">0</pdfrwt>
<totfact> 0.12653898E+12</totfact>
</mgrwt>
</event>
<event>
 4    1  0.1750553E+006  0.2582199E+01  0.7546771E-02  0.2673364E+00
         22   -1    0    0    0    0  0.00000000000E+00  0.00000000000E+00  0.13104179297E+02  0.13104179297E+02  0.00000000000E+00 0.  1.
         22   -1    0    0    0    0 -0.00000000000E+00 -0.00000000000E+00 -0.14235356680E+01  0.14235356680E+01  0.00000000000E+00 0.  1.
          4    1    1    2  501    0  0.15426973314E+01  0.16355226653E+01  0.11663026053E+02  0.11945456297E+02  0.12700000000E+01 0.  1.
         -4    1    1    2    0  501 -0.15426973314E+01 -0.16355226653E+01  0.17617575840E-01  0.25822586672E+01  0.12700000000E+01 0.  1.
<mgrwt>
<rscale>  0 0.25821986E+01</rscale>
<asrwt>0</asrwt>
<pdfrwt beam="1">0</pdfrwt>
<pdfrwt beam="2">0</pdfrwt>
<totfact> 0.76192493E+11</totfact>
</mgrwt>
</event>
<event>
 4    1  0.1750553E+006  0.2263033E+01  0.7546771E-02  0.2823216E+00
         22   -1    0    0    0    0  0.00000000000E+00  0.00000000000E+00  0.13937042487E+02  0.13937042487E+02  0.00000000000E+00 0. -1.
         22   -1    0    0    0    0 -0.00000000000E+00 -0.00000000000E+00 -0.14479502876E+01  0.14479502876E+01  0.00000000000E+00 0.  1.
          4    1    1    2  501    0 -0.16392682618E+01 -0.90620996268E+00  0.12889634243E+02  0.13086786765E+02  0.12700000000E+01 0. -1.
         -4    1    1    2    0  501  0.16392682618E+01  0.90620996268E+00 -0.40054204359E+00  0.22982060089E+01  0.12700000000E+01 0.  1.
<mgrwt>
<rscale>  0 0.22630327E+01</rscale>
<asrwt>0</asrwt>
<pdfrwt beam="1">0</pdfrwt>
<pdfrwt beam="2">0</pdfrwt>
<totfact> 0.69281649E+11</totfact>
</mgrwt>
</event>
<event>
 4    1  0.1750553E+006  0.2096927E+01  0.7546771E-02  0.2918237E+00
         22   -1    0    0    0    0  0.00000000000E+00  0.00000000000E+00  0.19867452816E+02  0.19867452816E+02  0.00000000000E+00 0.  1.
         22   -1    0    0    0    0 -0.00000000000E+00 -0.00000000000E+00 -0.30567751568E+00  0.30567751568E+00  0.00000000000E+00 0.  1.
          4    1    1    2  501    0 -0.15478667328E+01  0.62314573750E+00  0.15079578717E+02  0.15224677215E+02  0.12700000000E+01 0.  1.
         -4    1    1    2    0  501  0.15478667328E+01 -0.62314573750E+00  0.44821965840E+01  0.49484531169E+01  0.12700000000E+01 0.  1.
<mgrwt>
<rscale>  0 0.20969268E+01</rscale>
<asrwt>0</asrwt>
<pdfrwt beam="1">0</pdfrwt>
<pdfrwt beam="2">0</pdfrwt>
<totfact> 0.26103555E+12</totfact>
</mgrwt>
</event>
<event>
 4    1  0.1750553E+006  0.2172257E+01  0.7546771E-02  0.2873414E+00
         22   -1    0    0    0    0  0.00000000000E+00  0.00000000000E+00  0.14321196406E+02  0.14321196406E+02  0.00000000000E+00 0.  1.
         22   -1    0    0    0    0 -0.00000000000E+00 -0.00000000000E+00 -0.40334260027E+00  0.40334260027E+00  0.00000000000E+00 0. -1.
          4    1    1    2  501    0  0.16884923348E+01 -0.50477185356E+00  0.10109252992E+02  0.10340004693E+02  0.12700000000E+01 0.  1.
         -4    1    1    2    0  501 -0.16884923348E+01  0.50477185356E+00  0.38086008141E+01  0.43845343139E+01  0.12700000000E+01 0. -1.
<mgrwt>
<rscale>  0 0.21722571E+01</rscale>
<asrwt>0</asrwt>
<pdfrwt beam="1">0</pdfrwt>
<pdfrwt beam="2">0</pdfrwt>
<totfact> 0.28660956E+12</totfact>
</mgrwt>
</event>
<event>
 4    1  0.1750553E+006  0.2553765E+01  0.7546771E-02  0.2685291E+00
         22   -1    0    0    0    0  0.00000000000E+00  0.00000000000E+00  0.97225027372E+01  0.97225027372E+01  0.00000000000E+00 0. -1.
         22   -1    0    0    0    0 -0.00000000000E+00 -0.00000000000E+00 -0.67998505150E+00  0.67998505150E+00  0.00000000000E+00 0.  1.
          4    1    1    2  501    0  0.16409166966E+01 -0.14886940405E+01  0.39162915420E+01  0.46753670437E+01  0.12700000000E+01 0. -1.
         -4    1    1    2    0  501 -0.16409166966E+01  0.14886940405E+01  0.51262261437E+01  0.57271207450E+01  0.12700000000E+01 0.  1.
<mgrwt>
<rscale>  0 0.25537654E+01</rscale>
<asrwt>0</asrwt>
<pdfrwt beam="1">0</pdfrwt>
<pdfrwt beam="2">0</pdfrwt>
<totfact> 0.25466182E+12</totfact>
</mgrwt>
</event>
<event>
 4    1  0.1750553E+006  0.2168346E+01  0.7546771E-02  0.2875667E+00
         22   -1    0    0    0    0  0.00000000000E+00  0.00000000000E+00  0.50580240553E+02  0.50580240553E+02  0.00000000000E+00 0.  1.
         22   -1    0    0    0    0 -0.00000000000E+00 -0.00000000000E+00 -0.93642084102E-01  0.93642084102E-01  0.00000000000E+00 0. -1.
          4    1    1    2  501    0 -0.17503107004E+01  0.15886589736E+00  0.23074218857E+02  0.23175877584E+02  0.12700000000E+01 0.  1.
         -4    1    1    2    0  501  0.17503107004E+01 -0.15886589736E+00  0.27412379612E+02  0.27498005053E+02  0.12700000000E+01 0. -1.
<mgrwt>
<rscale>  0 0.21683464E+01</rscale>
<asrwt>0</asrwt>
<pdfrwt beam="1">0</pdfrwt>
<pdfrwt beam="2">0</pdfrwt>
<totfact> 0.29463779E+12</totfact>
</mgrwt>
</event>
<event>
 4    1  0.1750553E+006  0.3323723E+01  0.7546771E-02  0.2428822E+00
         22   -1    0    0    0    0  0.00000000000E+00  0.00000000000E+00  0.37940664074E+02  0.37940664074E+02  0.00000000000E+00 0.  1.
         22   -1    0    0    0    0 -0.00000000000E+00 -0.00000000000E+00 -0.48745984375E+00  0.48745984375E+00  0.00000000000E+00 0. -1.
          4    1    1    2  501    0 -0.29479850338E+01  0.86233437295E+00  0.30919306501E+02  0.31097438011E+02  0.12700000000E+01 0.  1.
         -4    1    1    2    0  501  0.29479850338E+01 -0.86233437295E+00  0.65338977290E+01  0.73306859067E+01  0.12700000000E+01 0. -1.
<mgrwt>
<rscale>  0 0.33237233E+01</rscale>
<asrwt>0</asrwt>
<pdfrwt beam="1">0</pdfrwt>
<pdfrwt beam="2">0</pdfrwt>
<totfact> 0.67966218E+11</totfact>
</mgrwt>
</event>
<event>
 4    1  0.1750553E+006  0.2586100E+01  0.7546771E-02  0.2671747E+00
         22   -1    0    0    0    0  0.00000000000E+00  0.00000000000E+00  0.92269221949E+01  0.92269221949E+01  0.00000000000E+00 0. -1.
         22   -1    0    0    0    0 -0.00000000000E+00 -0.00000000000E+00 -0.76276662115E+00  0.76276662115E+00  0.00000000000E+00 0.  1.
          4    1    1    2  501    0 -0.20407476049E+01  0.95412979676E+00  0.53460580741E+01  0.59387078888E+01  0.12700000000E+01 0. -1.
         -4    1    1    2    0  501  0.20407476049E+01 -0.95412979676E+00  0.31180974997E+01  0.40509809273E+01  0.12700000000E+01 0.  1.
<mgrwt>
<rscale>  0 0.25861002E+01</rscale>
<asrwt>0</asrwt>
<pdfrwt beam="1">0</pdfrwt>
<pdfrwt beam="2">0</pdfrwt>
<totfact> 0.23810247E+12</totfact>
</mgrwt>
</event>
<event>
 4    1  0.1750553E+006  0.2513899E+01  0.7546771E-02  0.2702434E+00
         22   -1    0    0    0    0  0.00000000000E+00  0.00000000000E+00  0.24776243809E+01  0.24776243809E+01  0.00000000000E+00 0. -1.
         22   -1    0    0    0    0 -0.00000000000E+00 -0.00000000000E+00 -0.25774925450E+01  0.25774925450E+01  0.00000000000E+00 0.  1.
          4    1    1    2  501    0 -0.15811717761E+01  0.14854917366E+01  0.20773702544E+00  0.25224679496E+01  0.12700000000E+01 0. -1.
         -4    1    1    2    0  501  0.15811717761E+01 -0.14854917366E+01 -0.30760518959E+00  0.25326489764E+01  0.12700000000E+01 0.  1.
<mgrwt>
<rscale>  0 0.25138993E+01</rscale>
<asrwt>0</asrwt>
<pdfrwt beam="1">0</pdfrwt>
<pdfrwt beam="2">0</pdfrwt>
<totfact> 0.27837006E+12</totfact>
</mgrwt>
</event>
<event>
 4    1  0.1750553E+006  0.2249045E+01  0.7546771E-02  0.2830700E+00
         22   -1    0    0    0    0  0.00000000000E+00  0.00000000000E+00  0.23991260356E+02  0.23991260356E+02  0.00000000000E+00 0. -1.
         22   -1    0    0    0    0 -0.00000000000E+00 -0.00000000000E+00 -0.23834593811E+00  0.23834593811E+00  0.00000000000E+00 0.  1.
          4    1    1    2  501    0  0.15133956125E+00 -0.18499725568E+01  0.15992345911E+02  0.16149716093E+02  0.12700000000E+01 0. -1.
         -4    1    1    2    0  501 -0.15133956125E+00  0.18499725568E+01  0.77605685069E+01  0.80798902019E+01  0.12700000000E+01 0.  1.
<mgrwt>
<rscale>  0 0.22490447E+01</rscale>
<asrwt>0</asrwt>
<pdfrwt beam="1">0</pdfrwt>
<pdfrwt beam="2">0</pdfrwt>
<totfact> 0.27234212E+12</totfact>
</mgrwt>
</event>
<event>
 4    1  0.1750553E+006  0.2360819E+01  0.7546771E-02  0.2773263E+00
         22   -1    0    0    0    0  0.00000000000E+00  0.00000000000E+00  0.77110515566E+01  0.77110515566E+01  0.00000000000E+00 0.  1.
         22   -1    0    0    0    0 -0.00000000000E+00 -0.00000000000E+00 -0.21349185912E+01  0.21349185912E+01  0.00000000000E+00 0.  1.
          4    1    1    2  501    0 -0.13402691307E+01  0.14711377466E+01  0.67918911345E+01  0.71904973955E+01  0.12700000000E+01 0.  1.
         -4    1    1    2    0  501  0.13402691307E+01 -0.14711377466E+01 -0.12157581691E+01  0.26554727522E+01  0.12700000000E+01 0.  1.
<mgrwt>
<rscale>  0 0.23608193E+01</rscale>
<asrwt>0</asrwt>
<pdfrwt beam="1">0</pdfrwt>
<pdfrwt beam="2">0</pdfrwt>
<totfact> 0.90724328E+11</totfact>
</mgrwt>
</event>
<event>
 4    1  0.1750553E+006  0.3232340E+01  0.7546771E-02  0.2453493E+00
         22   -1    0    0    0    0  0.00000000000E+00  0.00000000000E+00  0.16532367632E+00  0.16532367632E+00  0.00000000000E+00 0.  1.
         22   -1    0    0    0    0 -0.00000000000E+00 -0.00000000000E+00 -0.75690089758E+02  0.75690089758E+02  0.00000000000E+00 0. -1.
          4    1    1    2  501    0  0.27840257879E+00  0.29593266799E+01 -0.22353701366E+02  0.22586190187E+02  0.12700000000E+01 0.  1.
         -4    1    1    2    0  501 -0.27840257879E+00 -0.29593266799E+01 -0.53171064716E+02  0.53269223248E+02  0.12700000000E+01 0. -1.
<mgrwt>
<rscale>  0 0.32323401E+01</rscale>
<asrwt>0</asrwt>
<pdfrwt beam="1">0</pdfrwt>
<pdfrwt beam="2">0</pdfrwt>
<totfact> 0.91285891E+11</totfact>
</mgrwt>
</event>
<event>
 4    1  0.1750553E+006  0.2491290E+01  0.7546771E-02  0.2712383E+00
         22   -1    0    0    0    0  0.00000000000E+00  0.00000000000E+00  0.46213844154E+02  0.46213844154E+02  0.00000000000E+00 0. -1.
         22   -1    0    0    0    0 -0.00000000000E+00 -0.00000000000E+00 -0.20783175635E+00  0.20783175635E+00  0.00000000000E+00 0. -1.
          4    1    1    2  501    0 -0.21175780629E+01  0.33088989736E+00  0.36809136592E+02  0.36893347118E+02  0.12700000000E+01 0. -1.
         -4    1    1    2    0  501  0.21175780629E+01 -0.33088989736E+00  0.91968758063E+01  0.95283287923E+01  0.12700000000E+01 0. -1.
<mgrwt>
<rscale>  0 0.24912898E+01</rscale>
<asrwt>0</asrwt>
<pdfrwt beam="1">0</pdfrwt>
<pdfrwt beam="2">0</pdfrwt>
<totfact> 0.13684120E+12</totfact>
</mgrwt>
</event>
<event>
 4    1  0.1750553E+006  0.2704029E+01  0.7546771E-02  0.2624886E+00
         22   -1    0    0    0    0  0.00000000000E+00  0.00000000000E+00  0.56634110548E+00  0.56634110548E+00  0.00000000000E+00 0. -1.
         22   -1    0    0    0    0 -0.00000000000E+00 -0.00000000000E+00 -0.13467502216E+02  0.13467502216E+02  0.00000000000E+00 0.  1.
          4    1    1    2  501    0  0.19867257903E+01  0.13235528737E+01 -0.50236115647E+01  0.57051244270E+01  0.12700000000E+01 0.  1.
         -4    1    1    2    0  501 -0.19867257903E+01 -0.13235528737E+01 -0.78775495454E+01  0.83287188940E+01  0.12700000000E+01 0. -1.
<mgrwt>
<rscale>  0 0.27040288E+01</rscale>
<asrwt>0</asrwt>
<pdfrwt beam="1">0</pdfrwt>
<pdfrwt beam="2">0</pdfrwt>
<totfact> 0.21072210E+12</totfact>
</mgrwt>
</event>
<event>
 4    1  0.1750553E+006  0.2090707E+01  0.7546771E-02  0.2922078E+00
         22   -1    0    0    0    0  0.00000000000E+00  0.00000000000E+00  0.33396823820E+01  0.33396823820E+01  0.00000000000E+00 0.  1.
         22   -1    0    0    0    0 -0.00000000000E+00 -0.00000000000E+00 -0.87801712719E+01  0.87801712719E+01  0.00000000000E+00 0. -1.
          4    1    1    2  501    0 -0.18003885682E+00 -0.16509822799E+01  0.28698011172E+01  0.35506076847E+01  0.12700000000E+01 0.  1.
         -4    1    1    2    0  501  0.18003885682E+00  0.16509822799E+01 -0.83102900071E+01  0.85692459692E+01  0.12700000000E+01 0. -1.
<mgrwt>
<rscale>  0 0.20907072E+01</rscale>
<asrwt>0</asrwt>
<pdfrwt beam="1">0</pdfrwt>
<pdfrwt beam="2">0</pdfrwt>
<totfact> 0.46077734E+11</totfact>
</mgrwt>
</event>
<event>
 4    1  0.1750553E+006  0.4155798E+01  0.7546771E-02  0.2248467E+00
         22   -1    0    0    0    0  0.00000000000E+00  0.00000000000E+00  0.12856117895E+02  0.12856117895E+02  0.00000000000E+00 0. -1.
         22   -1    0    0    0    0 -0.00000000000E+00 -0.00000000000E+00 -0.26888249726E+01  0.26888249726E+01  0.00000000000E+00 0.  1.
          4    1    1    2  501    0  0.39400824722E+01  0.36538654647E+00  0.10581722836E+02  0.11368531805E+02  0.12700000000E+01 0. -1.
         -4    1    1    2    0  501 -0.39400824722E+01 -0.36538654647E+00 -0.41442991322E+00  0.41764110633E+01  0.12700000000E+01 0.  1.
<mgrwt>
<rscale>  0 0.41557980E+01</rscale>
<asrwt>0</asrwt>
<pdfrwt beam="1">0</pdfrwt>
<pdfrwt beam="2">0</pdfrwt>
<totfact> 0.37368720E+11</totfact>
</mgrwt>
</event>
<event>
 4    1  0.1750553E+006  0.2534131E+01  0.7546771E-02  0.2693672E+00
         22   -1    0    0    0    0  0.00000000000E+00  0.00000000000E+00  0.19607108666E+02  0.19607108666E+02  0.00000000000E+00 0.  1.
         22   -1    0    0    0    0 -0.00000000000E+00 -0.00000000000E+00 -0.39854676161E+00  0.39854676161E+00  0.00000000000E+00 0.  1.
          4    1    1    2  501    0 -0.63072932339E+00 -0.21002614312E+01  0.13826871554E+02  0.14057175909E+02  0.12700000000E+01 0.  1.
         -4    1    1    2    0  501  0.63072932339E+00  0.21002614312E+01  0.53816903504E+01  0.59484795189E+01  0.12700000000E+01 0.  1.
<mgrwt>
<rscale>  0 0.25341305E+01</rscale>
<asrwt>0</asrwt>
<pdfrwt beam="1">0</pdfrwt>
<pdfrwt beam="2">0</pdfrwt>
<totfact> 0.19698071E+12</totfact>
</mgrwt>
</event>
<event>
 4    1  0.1750553E+006  0.2168341E+01  0.7546771E-02  0.2875670E+00
         22   -1    0    0    0    0  0.00000000000E+00  0.00000000000E+00  0.75968234709E-01  0.75968234709E-01  0.00000000000E+00 0.  1.
         22   -1    0    0    0    0 -0.00000000000E+00 -0.00000000000E+00 -0.87276262600E+02  0.87276262600E+02  0.00000000000E+00 0. -1.
          4    1    1    2  501    0 -0.50088580512E+00 -0.16846113974E+01 -0.20044656552E+02  0.20161596128E+02  0.12700000000E+01 0.  1.
         -4    1    1    2    0  501  0.50088580512E+00  0.16846113974E+01 -0.67155637813E+02  0.67190634707E+02  0.12700000000E+01 0. -1.
<mgrwt>
<rscale>  0 0.21683409E+01</rscale>
<asrwt>0</asrwt>
<pdfrwt beam="1">0</pdfrwt>
<pdfrwt beam="2">0</pdfrwt>
<totfact> 0.17762435E+12</totfact>
</mgrwt>
</event>
<event>
 4    1  0.1750553E+006  0.3506579E+01  0.7546771E-02  0.2382865E+00
         22   -1    0    0    0    0  0.00000000000E+00  0.00000000000E+00  0.15721339413E+01  0.15721339413E+01  0.00000000000E+00 0. -1.
         22   -1    0    0    0    0 -0.00000000000E+00 -0.00000000000E+00 -0.14537923749E+02  0.14537923749E+02  0.00000000000E+00 0.  1.
          4    1    1    2  501    0  0.32485741382E+01  0.36050541959E+00 -0.10077943738E+01  0.36485267697E+01  0.12700000000E+01 0.  1.
         -4    1    1    2    0  501 -0.32485741382E+01 -0.36050541959E+00 -0.11957995434E+02  0.12461530921E+02  0.12700000000E+01 0. -1.
<mgrwt>
<rscale>  0 0.35065793E+01</rscale>
<asrwt>0</asrwt>
<pdfrwt beam="1">0</pdfrwt>
<pdfrwt beam="2">0</pdfrwt>
<totfact> 0.59842820E+11</totfact>
</mgrwt>
</event>
<event>
 4    1  0.1750553E+006  0.2256041E+01  0.7546771E-02  0.2826945E+00
         22   -1    0    0    0    0  0.00000000000E+00  0.00000000000E+00  0.55242829559E+00  0.55242829559E+00  0.00000000000E+00 0.  1.
         22   -1    0    0    0    0 -0.00000000000E+00 -0.00000000000E+00 -0.24031354445E+02  0.24031354445E+02  0.00000000000E+00 0.  1.
          4    1    1    2  501    0  0.10222829731E+01 -0.15594101517E+01 -0.20873087570E+01  0.30735289726E+01  0.12700000000E+01 0.  1.
         -4    1    1    2    0  501 -0.10222829731E+01  0.15594101517E+01 -0.21391617392E+02  0.21510253768E+02  0.12700000000E+01 0.  1.
<mgrwt>
<rscale>  0 0.22560413E+01</rscale>
<asrwt>0</asrwt>
<pdfrwt beam="1">0</pdfrwt>
<pdfrwt beam="2">0</pdfrwt>
<totfact> 0.10563019E+12</totfact>
</mgrwt>
</event>
<event>
 4    1  0.1750553E+006  0.2315731E+01  0.7546771E-02  0.2795800E+00
         22   -1    0    0    0    0  0.00000000000E+00  0.00000000000E+00  0.35855148588E+01  0.35855148588E+01  0.00000000000E+00 0. -1.
         22   -1    0    0    0    0 -0.00000000000E+00 -0.00000000000E+00 -0.14956584610E+01  0.14956584610E+01  0.00000000000E+00 0. -1.
          4    1    1    2  501    0 -0.19162207732E+01 -0.27893673888E+00  0.10340742267E+01  0.25361224856E+01  0.12700000000E+01 0. -1.
         -4    1    1    2    0  501  0.19162207732E+01  0.27893673888E+00  0.10557821711E+01  0.25450508342E+01  0.12700000000E+01 0. -1.
<mgrwt>
<rscale>  0 0.23157305E+01</rscale>
<asrwt>0</asrwt>
<pdfrwt beam="1">0</pdfrwt>
<pdfrwt beam="2">0</pdfrwt>
<totfact> 0.33932618E+12</totfact>
</mgrwt>
</event>
<event>
 4    1  0.1750553E+006  0.3118207E+01  0.7546771E-02  0.2486096E+00
         22   -1    0    0    0    0  0.00000000000E+00  0.00000000000E+00  0.74929639832E+00  0.74929639832E+00  0.00000000000E+00 0. -1.
         22   -1    0    0    0    0 -0.00000000000E+00 -0.00000000000E+00 -0.23734779975E+02  0.23734779975E+02  0.00000000000E+00 0.  1.
          4    1    1    2  501    0 -0.20876981651E+01  0.19369646250E+01 -0.32507281183E+01  0.45044920786E+01  0.12700000000E+01 0. -1.
         -4    1    1    2    0  501  0.20876981651E+01 -0.19369646250E+01 -0.19734755458E+02  0.19979584295E+02  0.12700000000E+01 0.  1.
<mgrwt>
<rscale>  0 0.31182071E+01</rscale>
<asrwt>0</asrwt>
<pdfrwt beam="1">0</pdfrwt>
<pdfrwt beam="2">0</pdfrwt>
<totfact> 0.75951254E+11</totfact>
</mgrwt>
</event>
<event>
 4    1  0.1750553E+006  0.2167015E+01  0.7546771E-02  0.2876436E+00
         22   -1    0    0    0    0  0.00000000000E+00  0.00000000000E+00  0.28783976243E+00  0.28783976243E+00  0.00000000000E+00 0.  1.
         22   -1    0    0    0    0 -0.00000000000E+00 -0.00000000000E+00 -0.22536337319E+02  0.22536337319E+02  0.00000000000E+00 0. -1.
          4    1    1    2  501    0 -0.38489365736E+00  0.17131575539E+01 -0.51279400086E+01  0.55670208068E+01  0.12700000000E+01 0.  1.
         -4    1    1    2    0  501  0.38489365736E+00 -0.17131575539E+01 -0.17120557548E+02  0.17257156274E+02  0.12700000000E+01 0. -1.
<mgrwt>
<rscale>  0 0.21670145E+01</rscale>
<asrwt>0</asrwt>
<pdfrwt beam="1">0</pdfrwt>
<pdfrwt beam="2">0</pdfrwt>
<totfact> 0.23852226E+12</totfact>
</mgrwt>
</event>
<event>
 4    1  0.1750553E+006  0.2005003E+01  0.7546771E-02  0.2977359E+00
         22   -1    0    0    0    0  0.00000000000E+00  0.00000000000E+00  0.75347553867E+00  0.75347553867E+00  0.00000000000E+00 0. -1.
         22   -1    0    0    0    0 -0.00000000000E+00 -0.00000000000E+00 -0.54146194912E+01  0.54146194912E+01  0.00000000000E+00 0.  1.
          4    1    1    2  501    0 -0.31003810267E+00  0.15202022817E+01 -0.19573627839E+01  0.28020184992E+01  0.12700000000E+01 0.  1.
         -4    1    1    2    0  501  0.31003810267E+00 -0.15202022817E+01 -0.27037811686E+01  0.33660765307E+01  0.12700000000E+01 0. -1.
<mgrwt>
<rscale>  0 0.20050034E+01</rscale>
<asrwt>0</asrwt>
<pdfrwt beam="1">0</pdfrwt>
<pdfrwt beam="2">0</pdfrwt>
<totfact> 0.45687083E+12</totfact>
</mgrwt>
</event>
<event>
 4    1  0.1750553E+006  0.2309343E+01  0.7546771E-02  0.2799060E+00
         22   -1    0    0    0    0  0.00000000000E+00  0.00000000000E+00  0.47997804131E+02  0.47997804131E+02  0.00000000000E+00 0.  1.
         22   -1    0    0    0    0 -0.00000000000E+00 -0.00000000000E+00 -0.11945344782E+00  0.11945344782E+00  0.00000000000E+00 0. -1.
          4    1    1    2  501    0  0.79033378764E+00  0.17594143564E+01  0.17581068190E+02  0.17732090262E+02  0.12700000000E+01 0. -1.
         -4    1    1    2    0  501 -0.79033378764E+00 -0.17594143564E+01  0.30297282493E+02  0.30385167316E+02  0.12700000000E+01 0. -1.
<mgrwt>
<rscale>  0 0.23093433E+01</rscale>
<asrwt>0</asrwt>
<pdfrwt beam="1">0</pdfrwt>
<pdfrwt beam="2">0</pdfrwt>
<totfact> 0.24108956E+12</totfact>
</mgrwt>
</event>
<event>
 4    1  0.1750553E+006  0.2051088E+01  0.7546771E-02  0.2947072E+00
         22   -1    0    0    0    0  0.00000000000E+00  0.00000000000E+00  0.19049110900E+02  0.19049110900E+02  0.00000000000E+00 0.  1.
         22   -1    0    0    0    0 -0.00000000000E+00 -0.00000000000E+00 -0.22200803674E+00  0.22200803674E+00  0.00000000000E+00 0. -1.
          4    1    1    2  501    0  0.32720239828E-01  0.16102772291E+01  0.87171235853E+01  0.89551776627E+01  0.12700000000E+01 0. -1.
         -4    1    1    2    0  501 -0.32720239828E-01 -0.16102772291E+01  0.10109979278E+02  0.10315941274E+02  0.12700000000E+01 0.  1.
<mgrwt>
<rscale>  0 0.20510883E+01</rscale>
<asrwt>0</asrwt>
<pdfrwt beam="1">0</pdfrwt>
<pdfrwt beam="2">0</pdfrwt>
<totfact> 0.39345480E+12</totfact>
</mgrwt>
</event>
<event>
 4    1  0.1750553E+006  0.5684818E+01  0.7546771E-02  0.2049162E+00
         22   -1    0    0    0    0  0.00000000000E+00  0.00000000000E+00  0.31511722085E+01  0.31511722085E+01  0.00000000000E+00 0. -1.
         22   -1    0    0    0    0 -0.00000000000E+00 -0.00000000000E+00 -0.18068715508E+02  0.18068715508E+02  0.00000000000E+00 0.  1.
          4    1    1    2  501    0  0.54070140487E+01  0.12117990046E+01 -0.48188602918E+00  0.57052056839E+01  0.12700000000E+01 0. -1.
         -4    1    1    2    0  501 -0.54070140487E+01 -0.12117990046E+01 -0.14435657271E+02  0.15514682033E+02  0.12700000000E+01 0.  1.
<mgrwt>
<rscale>  0 0.56848182E+01</rscale>
<asrwt>0</asrwt>
<pdfrwt beam="1">0</pdfrwt>
<pdfrwt beam="2">0</pdfrwt>
<totfact> 0.20418249E+11</totfact>
</mgrwt>
</event>
<event>
 4    1  0.1750553E+006  0.2261264E+01  0.7546771E-02  0.2824158E+00
         22   -1    0    0    0    0  0.00000000000E+00  0.00000000000E+00  0.51738914039E+01  0.51738914039E+01  0.00000000000E+00 0. -1.
         22   -1    0    0    0    0 -0.00000000000E+00 -0.00000000000E+00 -0.99390331382E+00  0.99390331382E+00  0.00000000000E+00 0.  1.
          4    1    1    2  501    0 -0.10625283998E+01  0.15399513112E+01  0.18582804778E+01  0.29268623089E+01  0.12700000000E+01 0. -1.
         -4    1    1    2    0  501  0.10625283998E+01 -0.15399513112E+01  0.23217076122E+01  0.32409324087E+01  0.12700000000E+01 0.  1.
<mgrwt>
<rscale>  0 0.22612644E+01</rscale>
<asrwt>0</asrwt>
<pdfrwt beam="1">0</pdfrwt>
<pdfrwt beam="2">0</pdfrwt>
<totfact> 0.35175245E+12</totfact>
</mgrwt>
</event>
<event>
 4    1  0.1750553E+006  0.3593142E+01  0.7546771E-02  0.2362540E+00
         22   -1    0    0    0    0  0.00000000000E+00  0.00000000000E+00  0.97875924092E+01  0.97875924092E+01  0.00000000000E+00 0. -1.
         22   -1    0    0    0    0 -0.00000000000E+00 -0.00000000000E+00 -0.63217786139E+01  0.63217786139E+01  0.00000000000E+00 0.  1.
          4    1    1    2  501    0 -0.25587977096E+01  0.21795229373E+01  0.88981495337E+01  0.95962352554E+01  0.12700000000E+01 0. -1.
         -4    1    1    2    0  501  0.25587977096E+01 -0.21795229373E+01 -0.54323357384E+01  0.65131357676E+01  0.12700000000E+01 0.  1.
<mgrwt>
<rscale>  0 0.35931415E+01</rscale>
<asrwt>0</asrwt>
<pdfrwt beam="1">0</pdfrwt>
<pdfrwt beam="2">0</pdfrwt>
<totfact> 0.19018186E+11</totfact>
</mgrwt>
</event>
<event>
 4    1  0.1750553E+006  0.2329600E+01  0.7546771E-02  0.2788780E+00
         22   -1    0    0    0    0  0.00000000000E+00  0.00000000000E+00  0.82223269669E+00  0.82223269669E+00  0.00000000000E+00 0. -1.
         22   -1    0    0    0    0 -0.00000000000E+00 -0.00000000000E+00 -0.98976096885E+01  0.98976096885E+01  0.00000000000E+00 0.  1.
          4    1    1    2  501    0  0.10357924188E+01  0.16556775003E+01 -0.14440540776E+01  0.27408622911E+01  0.12700000000E+01 0. -1.
         -4    1    1    2    0  501 -0.10357924188E+01 -0.16556775003E+01 -0.76313229142E+01  0.79789800940E+01  0.12700000000E+01 0.  1.
<mgrwt>
<rscale>  0 0.23295995E+01</rscale>
<asrwt>0</asrwt>
<pdfrwt beam="1">0</pdfrwt>
<pdfrwt beam="2">0</pdfrwt>
<totfact> 0.20083101E+12</totfact>
</mgrwt>
</event>
<event>
 4    1  0.1750553E+006  0.3321342E+01  0.7546771E-02  0.2429450E+00
         22   -1    0    0    0    0  0.00000000000E+00  0.00000000000E+00  0.59677116730E+01  0.59677116730E+01  0.00000000000E+00 0.  1.
         22   -1    0    0    0    0 -0.00000000000E+00 -0.00000000000E+00 -0.26146063822E+01  0.26146063822E+01  0.00000000000E+00 0.  1.
          4    1    1    2  501    0 -0.21507931876E+01 -0.21891787375E+01  0.39993750062E+01  0.51986839990E+01  0.12700000000E+01 0.  1.
         -4    1    1    2    0  501  0.21507931876E+01  0.21891787375E+01 -0.64626971540E+00  0.33836340562E+01  0.12700000000E+01 0.  1.
<mgrwt>
<rscale>  0 0.33213423E+01</rscale>
<asrwt>0</asrwt>
<pdfrwt beam="1">0</pdfrwt>
<pdfrwt beam="2">0</pdfrwt>
<totfact> 0.97384699E+11</totfact>
</mgrwt>
</event>
<event>
 4    1  0.1750553E+006  0.3224908E+01  0.7546771E-02  0.2455554E+00
         22   -1    0    0    0    0  0.00000000000E+00  0.00000000000E+00  0.31569308041E+01  0.31569308041E+01  0.00000000000E+00 0.  1.
         22   -1    0    0    0    0 -0.00000000000E+00 -0.00000000000E+00 -0.17564151772E+02  0.17564151772E+02  0.00000000000E+00 0. -1.
          4    1    1    2  501    0  0.23822060407E+01  0.17641505456E+01  0.21349048451E+01  0.38675381660E+01  0.12700000000E+01 0.  1.
         -4    1    1    2    0  501 -0.23822060407E+01 -0.17641505456E+01 -0.16542125813E+02  0.16853544410E+02  0.12700000000E+01 0. -1.
<mgrwt>
<rscale>  0 0.32249082E+01</rscale>
<asrwt>0</asrwt>
<pdfrwt beam="1">0</pdfrwt>
<pdfrwt beam="2">0</pdfrwt>
<totfact> 0.21102904E+11</totfact>
</mgrwt>
</event>
<event>
 4    1  0.1750553E+006  0.2298237E+01  0.7546771E-02  0.2804769E+00
         22   -1    0    0    0    0  0.00000000000E+00  0.00000000000E+00  0.49478192897E+02  0.49478192897E+02  0.00000000000E+00 0.  1.
         22   -1    0    0    0    0 -0.00000000000E+00 -0.00000000000E+00 -0.13668062400E+00  0.13668062400E+00  0.00000000000E+00 0. -1.
          4    1    1    2  501    0  0.43020804193E+00 -0.18665248369E+01  0.36279149140E+02  0.36351871428E+02  0.12700000000E+01 0.  1.
         -4    1    1    2    0  501 -0.43020804193E+00  0.18665248369E+01  0.13062363133E+02  0.13263002094E+02  0.12700000000E+01 0. -1.
<mgrwt>
<rscale>  0 0.22982371E+01</rscale>
<asrwt>0</asrwt>
<pdfrwt beam="1">0</pdfrwt>
<pdfrwt beam="2">0</pdfrwt>
<totfact> 0.19946883E+12</totfact>
</mgrwt>
</event>
<event>
 4    1  0.1750553E+006  0.3712488E+01  0.7546771E-02  0.2335870E+00
         22   -1    0    0    0    0  0.00000000000E+00  0.00000000000E+00  0.14473913060E+02  0.14473913060E+02  0.00000000000E+00 0. -1.
         22   -1    0    0    0    0 -0.00000000000E+00 -0.00000000000E+00 -0.12937992131E+01  0.12937992131E+01  0.00000000000E+00 0. -1.
          4    1    1    2  501    0  0.32852522544E+01 -0.11733648465E+01  0.10640862448E+02  0.11269894457E+02  0.12700000000E+01 0. -1.
         -4    1    1    2    0  501 -0.32852522544E+01  0.11733648465E+01  0.25392513987E+01  0.44978178158E+01  0.12700000000E+01 0. -1.
<mgrwt>
<rscale>  0 0.37124880E+01</rscale>
<asrwt>0</asrwt>
<pdfrwt beam="1">0</pdfrwt>
<pdfrwt beam="2">0</pdfrwt>
<totfact> 0.75273375E+11</totfact>
</mgrwt>
</event>
<event>
 4    1  0.1750553E+006  0.2565825E+01  0.7546771E-02  0.2680203E+00
         22   -1    0    0    0    0  0.00000000000E+00  0.00000000000E+00  0.34972602958E+02  0.34972602958E+02  0.00000000000E+00 0. -1.
         22   -1    0    0    0    0 -0.00000000000E+00 -0.00000000000E+00 -0.19959718811E+00  0.19959718811E+00  0.00000000000E+00 0. -1.
          4    1    1    2  501    0  0.20379081324E+01  0.90414961869E+00  0.21580335489E+02  0.21732333881E+02  0.12700000000E+01 0. -1.
         -4    1    1    2    0  501 -0.20379081324E+01 -0.90414961869E+00  0.13192670281E+02  0.13439866266E+02  0.12700000000E+01 0. -1.
<mgrwt>
<rscale>  0 0.25658246E+01</rscale>
<asrwt>0</asrwt>
<pdfrwt beam="1">0</pdfrwt>
<pdfrwt beam="2">0</pdfrwt>
<totfact> 0.20557940E+12</totfact>
</mgrwt>
</event>
<event>
 4    1  0.1750553E+006  0.2825086E+01  0.7546771E-02  0.2580522E+00
         22   -1    0    0    0    0  0.00000000000E+00  0.00000000000E+00  0.15607963204E+01  0.15607963204E+01  0.00000000000E+00 0.  1.
         22   -1    0    0    0    0 -0.00000000000E+00 -0.00000000000E+00 -0.57928291049E+01  0.57928291049E+01  0.00000000000E+00 0.  1.
          4    1    1    2  501    0  0.59243014379E+00  0.24530055435E+01 -0.33751471437E+01  0.44014461161E+01  0.12700000000E+01 0.  1.
         -4    1    1    2    0  501 -0.59243014379E+00 -0.24530055435E+01 -0.85688564087E+00  0.29521793091E+01  0.12700000000E+01 0.  1.
<mgrwt>
<rscale>  0 0.28250858E+01</rscale>
<asrwt>0</asrwt>
<pdfrwt beam="1">0</pdfrwt>
<pdfrwt beam="2">0</pdfrwt>
<totfact> 0.18334442E+12</totfact>
</mgrwt>
</event>
<event>
 4    1  0.1750553E+006  0.3619405E+01  0.7546771E-02  0.2356540E+00
         22   -1    0    0    0    0  0.00000000000E+00  0.00000000000E+00  0.10561020669E+02  0.10561020669E+02  0.00000000000E+00 0.  1.
         22   -1    0    0    0    0 -0.00000000000E+00 -0.00000000000E+00 -0.14360926120E+01  0.14360926120E+01  0.00000000000E+00 0. -1.
          4    1    1    2  501    0 -0.13518254297E+01  0.31080151826E+01  0.67766888017E+01  0.76826819199E+01  0.12700000000E+01 0.  1.
         -4    1    1    2    0  501  0.13518254297E+01 -0.31080151826E+01  0.23482392551E+01  0.43144313608E+01  0.12700000000E+01 0. -1.
<mgrwt>
<rscale>  0 0.36194047E+01</rscale>
<asrwt>0</asrwt>
<pdfrwt beam="1">0</pdfrwt>
<pdfrwt beam="2">0</pdfrwt>
<totfact> 0.98108831E+11</totfact>
</mgrwt>
</event>
<event>
 4    1  0.1750553E+006  0.2032949E+01  0.7546771E-02  0.2958833E+00
         22   -1    0    0    0    0  0.00000000000E+00  0.00000000000E+00  0.33332109875E+01  0.33332109875E+01  0.00000000000E+00 0. -1.
         22   -1    0    0    0    0 -0.00000000000E+00 -0.00000000000E+00 -0.12952162155E+01  0.12952162155E+01  0.00000000000E+00 0.  1.
          4    1    1    2  501    0 -0.15823846772E+01  0.12665267940E+00  0.14972073809E+01  0.25247796160E+01  0.12700000000E+01 0.  1.
         -4    1    1    2    0  501  0.15823846772E+01 -0.12665267940E+00  0.54078739107E+00  0.21036475870E+01  0.12700000000E+01 0. -1.
<mgrwt>
<rscale>  0 0.20329491E+01</rscale>
<asrwt>0</asrwt>
<pdfrwt beam="1">0</pdfrwt>
<pdfrwt beam="2">0</pdfrwt>
<totfact> 0.43605151E+12</totfact>
</mgrwt>
</event>
<event>
 4    1  0.1750553E+006  0.2687196E+01  0.7546771E-02  0.2631344E+00
         22   -1    0    0    0    0  0.00000000000E+00  0.00000000000E+00  0.50005463044E+01  0.50005463044E+01  0.00000000000E+00 0.  1.
         22   -1    0    0    0    0 -0.00000000000E+00 -0.00000000000E+00 -0.15605878296E+01  0.15605878296E+01  0.00000000000E+00 0.  1.
          4    1    1    2  501    0 -0.23173201621E+01  0.48800735857E+00  0.26164659476E+01  0.37505890165E+01  0.12700000000E+01 0.  1.
         -4    1    1    2    0  501  0.23173201621E+01 -0.48800735857E+00  0.82349252721E+00  0.28105451176E+01  0.12700000000E+01 0.  1.
<mgrwt>
<rscale>  0 0.26871963E+01</rscale>
<asrwt>0</asrwt>
<pdfrwt beam="1">0</pdfrwt>
<pdfrwt beam="2">0</pdfrwt>
<totfact> 0.21833351E+12</totfact>
</mgrwt>
</event>
<event>
 4    1  0.1750553E+006  0.2458207E+01  0.7546771E-02  0.2727247E+00
         22   -1    0    0    0    0  0.00000000000E+00  0.00000000000E+00  0.20046292667E+00  0.20046292667E+00  0.00000000000E+00 0.  1.
         22   -1    0    0    0    0 -0.00000000000E+00 -0.00000000000E+00 -0.37010712262E+02  0.37010712262E+02  0.00000000000E+00 0. -1.
          4    1    1    2  501    0 -0.19257517926E+01  0.84932905715E+00 -0.10391110718E+02  0.10677919356E+02  0.12700000000E+01 0.  1.
         -4    1    1    2    0  501  0.19257517926E+01 -0.84932905715E+00 -0.26419138617E+02  0.26533255833E+02  0.12700000000E+01 0. -1.
<mgrwt>
<rscale>  0 0.24582066E+01</rscale>
<asrwt>0</asrwt>
<pdfrwt beam="1">0</pdfrwt>
<pdfrwt beam="2">0</pdfrwt>
<totfact> 0.19018449E+12</totfact>
</mgrwt>
</event>
<event>
 4    1  0.1750553E+006  0.2459228E+01  0.7546771E-02  0.2726783E+00
         22   -1    0    0    0    0  0.00000000000E+00  0.00000000000E+00  0.10056737101E+02  0.10056737101E+02  0.00000000000E+00 0.  1.
         22   -1    0    0    0    0 -0.00000000000E+00 -0.00000000000E+00 -0.60623541282E+00  0.60623541282E+00  0.00000000000E+00 0. -1.
          4    1    1    2  501    0 -0.20477771507E+01 -0.49143843737E+00  0.52029592621E+01  0.57548751576E+01  0.12700000000E+01 0.  1.
         -4    1    1    2    0  501  0.20477771507E+01  0.49143843737E+00  0.42475424261E+01  0.49080973562E+01  0.12700000000E+01 0.  1.
<mgrwt>
<rscale>  0 0.24592281E+01</rscale>
<asrwt>0</asrwt>
<pdfrwt beam="1">0</pdfrwt>
<pdfrwt beam="2">0</pdfrwt>
<totfact> 0.27842627E+12</totfact>
</mgrwt>
</event>
<event>
 4    1  0.1750553E+006  0.2249759E+01  0.7546771E-02  0.2830315E+00
         22   -1    0    0    0    0  0.00000000000E+00  0.00000000000E+00  0.16727108621E+01  0.16727108621E+01  0.00000000000E+00 0. -1.
         22   -1    0    0    0    0 -0.00000000000E+00 -0.00000000000E+00 -0.32747030680E+01  0.32747030680E+01  0.00000000000E+00 0. -1.
          4    1    1    2  501    0 -0.17884910312E+01 -0.49981433733E+00 -0.11911025088E+00  0.22529096281E+01  0.12700000000E+01 0.  1.
         -4    1    1    2    0  501  0.17884910312E+01  0.49981433733E+00 -0.14828819550E+01  0.26945043019E+01  0.12700000000E+01 0.  1.
<mgrwt>
<rscale>  0 0.22497588E+01</rscale>
<asrwt>0</asrwt>
<pdfrwt beam="1">0</pdfrwt>
<pdfrwt beam="2">0</pdfrwt>
<totfact> 0.33174257E+12</totfact>
</mgrwt>
</event>
<event>
 4    1  0.1750553E+006  0.2457297E+01  0.7546771E-02  0.2727661E+00
         22   -1    0    0    0    0  0.00000000000E+00  0.00000000000E+00  0.12522549191E+02  0.12522549191E+02  0.00000000000E+00 0. -1.
         22   -1    0    0    0    0 -0.00000000000E+00 -0.00000000000E+00 -0.49928151155E+00  0.49928151155E+00  0.00000000000E+00 0.  1.
          4    1    1    2  501    0  0.18936759333E+01 -0.91618743910E+00  0.72161113389E+01  0.76230289793E+01  0.12700000000E+01 0.  1.
         -4    1    1    2    0  501 -0.18936759333E+01  0.91618743910E+00  0.48071563402E+01  0.53988017228E+01  0.12700000000E+01 0. -1.
<mgrwt>
<rscale>  0 0.24572969E+01</rscale>
<asrwt>0</asrwt>
<pdfrwt beam="1">0</pdfrwt>
<pdfrwt beam="2">0</pdfrwt>
<totfact> 0.26559036E+12</totfact>
</mgrwt>
</event>
<event>
 4    1  0.1750553E+006  0.2770572E+01  0.7546771E-02  0.2600063E+00
         22   -1    0    0    0    0  0.00000000000E+00  0.00000000000E+00  0.12977650979E+02  0.12977650979E+02  0.00000000000E+00 0.  1.
         22   -1    0    0    0    0 -0.00000000000E+00 -0.00000000000E+00 -0.76514965137E+00  0.76514965137E+00  0.00000000000E+00 0.  1.
          4    1    1    2  501    0  0.21262990811E+01  0.12417812794E+01  0.28326217696E+01  0.39622991580E+01  0.12700000000E+01 0.  1.
         -4    1    1    2    0  501 -0.21262990811E+01 -0.12417812794E+01  0.93798795583E+01  0.97805014726E+01  0.12700000000E+01 0.  1.
<mgrwt>
<rscale>  0 0.27705719E+01</rscale>
<asrwt>0</asrwt>
<pdfrwt beam="1">0</pdfrwt>
<pdfrwt beam="2">0</pdfrwt>
<totfact> 0.15675715E+12</totfact>
</mgrwt>
</event>
<event>
 4    1  0.1750553E+006  0.2403993E+01  0.7546771E-02  0.2752432E+00
         22   -1    0    0    0    0  0.00000000000E+00  0.00000000000E+00  0.14779415278E+02  0.14779415278E+02  0.00000000000E+00 0. -1.
         22   -1    0    0    0    0 -0.00000000000E+00 -0.00000000000E+00 -0.80270482816E+00  0.80270482816E+00  0.00000000000E+00 0.  1.
          4    1    1    2  501    0  0.15783646390E+01 -0.12942363799E+01  0.12567867014E+02  0.12795720535E+02  0.12700000000E+01 0. -1.
         -4    1    1    2    0  501 -0.15783646390E+01  0.12942363799E+01  0.14088434358E+01  0.27863995706E+01  0.12700000000E+01 0.  1.
<mgrwt>
<rscale>  0 0.24039931E+01</rscale>
<asrwt>0</asrwt>
<pdfrwt beam="1">0</pdfrwt>
<pdfrwt beam="2">0</pdfrwt>
<totfact> 0.12656224E+12</totfact>
</mgrwt>
</event>
<event>
 4    1  0.1750553E+006  0.2267475E+01  0.7546771E-02  0.2820858E+00
         22   -1    0    0    0    0  0.00000000000E+00  0.00000000000E+00  0.86052808079E-01  0.86052808079E-01  0.00000000000E+00 0. -1.
         22   -1    0    0    0    0 -0.00000000000E+00 -0.00000000000E+00 -0.63523831488E+02  0.63523831488E+02  0.00000000000E+00 0. -1.
          4    1    1    2  501    0 -0.13005407480E+01 -0.13554108143E+01 -0.23964309464E+02  0.24071343394E+02  0.12700000000E+01 0. -1.
         -4    1    1    2    0  501  0.13005407480E+01  0.13554108143E+01 -0.39473469216E+02  0.39538540902E+02  0.12700000000E+01 0. -1.
<mgrwt>
<rscale>  0 0.22674754E+01</rscale>
<asrwt>0</asrwt>
<pdfrwt beam="1">0</pdfrwt>
<pdfrwt beam="2">0</pdfrwt>
<totfact> 0.23880991E+12</totfact>
</mgrwt>
</event>
<event>
 4    1  0.1750553E+006  0.2247805E+01  0.7546771E-02  0.2831367E+00
         22   -1    0    0    0    0  0.00000000000E+00  0.00000000000E+00  0.13704723617E+02  0.13704723617E+02  0.00000000000E+00 0.  1.
         22   -1    0    0    0    0 -0.00000000000E+00 -0.00000000000E+00 -0.84349650693E+00  0.84349650693E+00  0.00000000000E+00 0.  1.
          4    1    1    2  501    0 -0.31597845206E+00 -0.18275347748E+01  0.11888219664E+02  0.12098859141E+02  0.12700000000E+01 0.  1.
         -4    1    1    2    0  501  0.31597845206E+00  0.18275347748E+01  0.97300744643E+00  0.24493609832E+01  0.12700000000E+01 0.  1.
<mgrwt>
<rscale>  0 0.22478046E+01</rscale>
<asrwt>0</asrwt>
<pdfrwt beam="1">0</pdfrwt>
<pdfrwt beam="2">0</pdfrwt>
<totfact> 0.13123531E+12</totfact>
</mgrwt>
</event>
<event>
 4    1  0.1750553E+006  0.2734073E+01  0.7546771E-02  0.2613542E+00
         22   -1    0    0    0    0  0.00000000000E+00  0.00000000000E+00  0.12224790559E+02  0.12224790559E+02  0.00000000000E+00 0.  1.
         22   -1    0    0    0    0 -0.00000000000E+00 -0.00000000000E+00 -0.14549788205E+01  0.14549788205E+01  0.00000000000E+00 0. -1.
          4    1    1    2  501    0 -0.23218869477E+01  0.68636333197E+00  0.10592821924E+02  0.10939973946E+02  0.12700000000E+01 0.  1.
         -4    1    1    2    0  501  0.23218869477E+01 -0.68636333197E+00  0.17698981401E+00  0.27397954332E+01  0.12700000000E+01 0. -1.
<mgrwt>
<rscale>  0 0.27340727E+01</rscale>
<asrwt>0</asrwt>
<pdfrwt beam="1">0</pdfrwt>
<pdfrwt beam="2">0</pdfrwt>
<totfact> 0.80885498E+11</totfact>
</mgrwt>
</event>
<event>
 4    1  0.1750553E+006  0.3103306E+01  0.7546771E-02  0.2490509E+00
         22   -1    0    0    0    0  0.00000000000E+00  0.00000000000E+00  0.13678233861E+01  0.13678233861E+01  0.00000000000E+00 0.  1.
         22   -1    0    0    0    0 -0.00000000000E+00 -0.00000000000E+00 -0.73131070591E+01  0.73131070591E+01  0.00000000000E+00 0. -1.
          4    1    1    2  501    0  0.83569932064E+00  0.27054042961E+01 -0.21350108465E+01  0.37667993143E+01  0.12700000000E+01 0. -1.
         -4    1    1    2    0  501 -0.83569932064E+00 -0.27054042961E+01 -0.38102728265E+01  0.49141311309E+01  0.12700000000E+01 0.  1.
<mgrwt>
<rscale>  0 0.31033056E+01</rscale>
<asrwt>0</asrwt>
<pdfrwt beam="1">0</pdfrwt>
<pdfrwt beam="2">0</pdfrwt>
<totfact> 0.16158432E+12</totfact>
</mgrwt>
</event>
<event>
 4    1  0.1750553E+006  0.2602663E+01  0.7546771E-02  0.2664930E+00
         22   -1    0    0    0    0  0.00000000000E+00  0.00000000000E+00  0.21267409136E+01  0.21267409136E+01  0.00000000000E+00 0.  1.
         22   -1    0    0    0    0 -0.00000000000E+00 -0.00000000000E+00 -0.38872297780E+01  0.38872297780E+01  0.00000000000E+00 0. -1.
          4    1    1    2  501    0 -0.21772197907E+01  0.64858891517E+00 -0.21582245632E+01  0.33810925547E+01  0.12700000000E+01 0. -1.
         -4    1    1    2    0  501  0.21772197907E+01 -0.64858891517E+00  0.39773569878E+00  0.26328781370E+01  0.12700000000E+01 0. -1.
<mgrwt>
<rscale>  0 0.26026628E+01</rscale>
<asrwt>0</asrwt>
<pdfrwt beam="1">0</pdfrwt>
<pdfrwt beam="2">0</pdfrwt>
<totfact> 0.20553208E+12</totfact>
</mgrwt>
</event>
<event>
 4    1  0.1750553E+006  0.2848899E+01  0.7546771E-02  0.2572199E+00
         22   -1    0    0    0    0  0.00000000000E+00  0.00000000000E+00  0.27799863828E+02  0.27799863828E+02  0.00000000000E+00 0. -1.
         22   -1    0    0    0    0 -0.00000000000E+00 -0.00000000000E+00 -0.69277216134E+00  0.69277216134E+00  0.00000000000E+00 0.  1.
          4    1    1    2  501    0  0.43722976194E+00 -0.25123999594E+01  0.24389876448E+02  0.24555697844E+02  0.12700000000E+01 0. -1.
         -4    1    1    2    0  501 -0.43722976194E+00  0.25123999594E+01  0.27172152183E+01  0.39369381458E+01  0.12700000000E+01 0.  1.
<mgrwt>
<rscale>  0 0.28488986E+01</rscale>
<asrwt>0</asrwt>
<pdfrwt beam="1">0</pdfrwt>
<pdfrwt beam="2">0</pdfrwt>
<totfact> 0.67996072E+11</totfact>
</mgrwt>
</event>
<event>
 4    1  0.1750553E+006  0.3235470E+01  0.7546771E-02  0.2452628E+00
         22   -1    0    0    0    0  0.00000000000E+00  0.00000000000E+00  0.37870660149E+01  0.37870660149E+01  0.00000000000E+00 0. -1.
         22   -1    0    0    0    0 -0.00000000000E+00 -0.00000000000E+00 -0.28362101413E+01  0.28362101413E+01  0.00000000000E+00 0. -1.
          4    1    1    2  501    0  0.25401078887E+01  0.15502308700E+01 -0.52197754506E-01  0.32358906721E+01  0.12700000000E+01 0. -1.
         -4    1    1    2    0  501 -0.25401078887E+01 -0.15502308700E+01  0.10030536282E+01  0.33873854840E+01  0.12700000000E+01 0. -1.
<mgrwt>
<rscale>  0 0.32354696E+01</rscale>
<asrwt>0</asrwt>
<pdfrwt beam="1">0</pdfrwt>
<pdfrwt beam="2">0</pdfrwt>
<totfact> 0.15165017E+12</totfact>
</mgrwt>
</event>
<event>
 4    1  0.1750553E+006  0.2770745E+01  0.7546771E-02  0.2600000E+00
         22   -1    0    0    0    0  0.00000000000E+00  0.00000000000E+00  0.32829568053E+01  0.32829568053E+01  0.00000000000E+00 0.  1.
         22   -1    0    0    0    0 -0.00000000000E+00 -0.00000000000E+00 -0.33399833748E+01  0.33399833748E+01  0.00000000000E+00 0. -1.
          4    1    1    2  501    0 -0.93043288420E-01 -0.24607863407E+01  0.17848367840E+01  0.32958563096E+01  0.12700000000E+01 0.  1.
         -4    1    1    2    0  501  0.93043288420E-01  0.24607863407E+01 -0.18418633535E+01  0.33270838705E+01  0.12700000000E+01 0. -1.
<mgrwt>
<rscale>  0 0.27707447E+01</rscale>
<asrwt>0</asrwt>
<pdfrwt beam="1">0</pdfrwt>
<pdfrwt beam="2">0</pdfrwt>
<totfact> 0.14811593E+12</totfact>
</mgrwt>
</event>
<event>
 4    1  0.1750553E+006  0.3227582E+01  0.7546771E-02  0.2454812E+00
         22   -1    0    0    0    0  0.00000000000E+00  0.00000000000E+00  0.19999552454E+01  0.19999552454E+01  0.00000000000E+00 0. -1.
         22   -1    0    0    0    0 -0.00000000000E+00 -0.00000000000E+00 -0.63616642870E+01  0.63616642870E+01  0.00000000000E+00 0.  1.
          4    1    1    2  501    0 -0.20253842051E+01  0.21684565432E+01 -0.40105190093E+00  0.32524033553E+01  0.12700000000E+01 0.  1.
         -4    1    1    2    0  501  0.20253842051E+01 -0.21684565432E+01 -0.39606571407E+01  0.51092161771E+01  0.12700000000E+01 0. -1.
<mgrwt>
<rscale>  0 0.32275819E+01</rscale>
<asrwt>0</asrwt>
<pdfrwt beam="1">0</pdfrwt>
<pdfrwt beam="2">0</pdfrwt>
<totfact> 0.12317534E+12</totfact>
</mgrwt>
</event>
<event>
 4    1  0.1750553E+006  0.2182602E+01  0.7546771E-02  0.2867492E+00
         22   -1    0    0    0    0  0.00000000000E+00  0.00000000000E+00  0.10843084699E+01  0.10843084699E+01  0.00000000000E+00 0.  1.
         22   -1    0    0    0    0 -0.00000000000E+00 -0.00000000000E+00 -0.10135779424E+02  0.10135779424E+02  0.00000000000E+00 0. -1.
          4    1    1    2  501    0 -0.78777122842E+00  0.15906817694E+01 -0.30308307034E+00  0.22035451770E+01  0.12700000000E+01 0.  1.
         -4    1    1    2    0  501  0.78777122842E+00 -0.15906817694E+01 -0.87483878838E+01  0.90165427169E+01  0.12700000000E+01 0. -1.
<mgrwt>
<rscale>  0 0.21826021E+01</rscale>
<asrwt>0</asrwt>
<pdfrwt beam="1">0</pdfrwt>
<pdfrwt beam="2">0</pdfrwt>
<totfact> 0.14230945E+12</totfact>
</mgrwt>
</event>
<event>
 4    1  0.1750553E+006  0.2013690E+01  0.7546771E-02  0.2971546E+00
         22   -1    0    0    0    0  0.00000000000E+00  0.00000000000E+00  0.88343426899E+01  0.88343426899E+01  0.00000000000E+00 0. -1.
         22   -1    0    0    0    0 -0.00000000000E+00 -0.00000000000E+00 -0.90668725458E+00  0.90668725458E+00  0.00000000000E+00 0. -1.
          4    1    1    2  501    0  0.15170123784E+00  0.15553244218E+01  0.73862561046E+01  0.76558295805E+01  0.12700000000E+01 0. -1.
         -4    1    1    2    0  501 -0.15170123784E+00 -0.15553244218E+01  0.54139933074E+00  0.20852003640E+01  0.12700000000E+01 0. -1.
<mgrwt>
<rscale>  0 0.20136900E+01</rscale>
<asrwt>0</asrwt>
<pdfrwt beam="1">0</pdfrwt>
<pdfrwt beam="2">0</pdfrwt>
<totfact> 0.20608686E+12</totfact>
</mgrwt>
</event>
<event>
 4    1  0.1750553E+006  0.2098528E+01  0.7546771E-02  0.2917252E+00
         22   -1    0    0    0    0  0.00000000000E+00  0.00000000000E+00  0.56563039039E+01  0.56563039039E+01  0.00000000000E+00 0. -1.
         22   -1    0    0    0    0 -0.00000000000E+00 -0.00000000000E+00 -0.24202084667E+01  0.24202084667E+01  0.00000000000E+00 0. -1.
          4    1    1    2  501    0 -0.43222522769E+00 -0.16137231513E+01  0.49439264794E+01  0.53708686533E+01  0.12700000000E+01 0. -1.
         -4    1    1    2    0  501  0.43222522769E+00  0.16137231513E+01 -0.17078310422E+01  0.27056437173E+01  0.12700000000E+01 0. -1.
<mgrwt>
<rscale>  0 0.20985283E+01</rscale>
<asrwt>0</asrwt>
<pdfrwt beam="1">0</pdfrwt>
<pdfrwt beam="2">0</pdfrwt>
<totfact> 0.11354409E+12</totfact>
</mgrwt>
</event>
<event>
 4    1  0.1750553E+006  0.2274897E+01  0.7546771E-02  0.2816939E+00
         22   -1    0    0    0    0  0.00000000000E+00  0.00000000000E+00  0.11160192272E+02  0.11160192272E+02  0.00000000000E+00 0.  1.
         22   -1    0    0    0    0 -0.00000000000E+00 -0.00000000000E+00 -0.48194027337E+00  0.48194027337E+00  0.00000000000E+00 0. -1.
          4    1    1    2  501    0 -0.16554000573E+01 -0.90659141401E+00  0.64710925235E+01  0.68593145276E+01  0.12700000000E+01 0.  1.
         -4    1    1    2    0  501  0.16554000573E+01  0.90659141401E+00  0.42071594755E+01  0.47828180181E+01  0.12700000000E+01 0. -1.
<mgrwt>
<rscale>  0 0.22748972E+01</rscale>
<asrwt>0</asrwt>
<pdfrwt beam="1">0</pdfrwt>
<pdfrwt beam="2">0</pdfrwt>
<totfact> 0.31804671E+12</totfact>
</mgrwt>
</event>
<event>
 4    1  0.1750553E+006  0.2247639E+01  0.7546771E-02  0.2831456E+00
         22   -1    0    0    0    0  0.00000000000E+00  0.00000000000E+00  0.97193964432E+00  0.97193964432E+00  0.00000000000E+00 0.  1.
         22   -1    0    0    0    0 -0.00000000000E+00 -0.00000000000E+00 -0.51979823754E+01  0.51979823754E+01  0.00000000000E+00 0. -1.
          4    1    1    2  501    0  0.11024295782E+01 -0.14911844804E+01 -0.20916256794E+01  0.30703061919E+01  0.12700000000E+01 0.  1.
         -4    1    1    2    0  501 -0.11024295782E+01  0.14911844804E+01 -0.21344170517E+01  0.30996158278E+01  0.12700000000E+01 0. -1.
<mgrwt>
<rscale>  0 0.22476392E+01</rscale>
<asrwt>0</asrwt>
<pdfrwt beam="1">0</pdfrwt>
<pdfrwt beam="2">0</pdfrwt>
<totfact> 0.35885921E+12</totfact>
</mgrwt>
</event>
<event>
 4    1  0.1750553E+006  0.2203540E+01  0.7546771E-02  0.2855668E+00
         22   -1    0    0    0    0  0.00000000000E+00  0.00000000000E+00  0.13835915894E+01  0.13835915894E+01  0.00000000000E+00 0. -1.
         22   -1    0    0    0    0 -0.00000000000E+00 -0.00000000000E+00 -0.47013331007E+01  0.47013331007E+01  0.00000000000E+00 0.  1.
          4    1    1    2  501    0 -0.18005876207E+01 -0.23923022382E-01 -0.12694015535E+00  0.22071932162E+01  0.12700000000E+01 0. -1.
         -4    1    1    2    0  501  0.18005876207E+01  0.23923022382E-01 -0.31908013559E+01  0.38777314739E+01  0.12700000000E+01 0.  1.
<mgrwt>
<rscale>  0 0.22035399E+01</rscale>
<asrwt>0</asrwt>
<pdfrwt beam="1">0</pdfrwt>
<pdfrwt beam="2">0</pdfrwt>
<totfact> 0.26973016E+12</totfact>
</mgrwt>
</event>
<event>
 4    1  0.1750553E+006  0.2995769E+01  0.7546771E-02  0.2523519E+00
         22   -1    0    0    0    0  0.00000000000E+00  0.00000000000E+00  0.13060869247E+01  0.13060869247E+01  0.00000000000E+00 0. -1.
         22   -1    0    0    0    0 -0.00000000000E+00 -0.00000000000E+00 -0.72426773219E+01  0.72426773219E+01  0.00000000000E+00 0.  1.
          4    1    1    2  501    0  0.27130532810E+01  0.32746373058E-01 -0.20005081121E+01  0.36023135812E+01  0.12700000000E+01 0.  1.
         -4    1    1    2    0  501 -0.27130532810E+01 -0.32746373058E-01 -0.39360822851E+01  0.49464506654E+01  0.12700000000E+01 0. -1.
<mgrwt>
<rscale>  0 0.29957688E+01</rscale>
<asrwt>0</asrwt>
<pdfrwt beam="1">0</pdfrwt>
<pdfrwt beam="2">0</pdfrwt>
<totfact> 0.17236915E+12</totfact>
</mgrwt>
</event>
<event>
 4    1  0.1750553E+006  0.2375915E+01  0.7546771E-02  0.2765898E+00
         22   -1    0    0    0    0  0.00000000000E+00  0.00000000000E+00  0.52239996823E+01  0.52239996823E+01  0.00000000000E+00 0.  1.
         22   -1    0    0    0    0 -0.00000000000E+00 -0.00000000000E+00 -0.16602570925E+01  0.16602570925E+01  0.00000000000E+00 0. -1.
          4    1    1    2  501    0  0.26738704698E+00 -0.19901201722E+01  0.38157764694E+01  0.44950110342E+01  0.12700000000E+01 0.  1.
         -4    1    1    2    0  501 -0.26738704698E+00  0.19901201722E+01 -0.25203387967E+00  0.23892457407E+01  0.12700000000E+01 0. -1.
<mgrwt>
<rscale>  0 0.23759154E+01</rscale>
<asrwt>0</asrwt>
<pdfrwt beam="1">0</pdfrwt>
<pdfrwt beam="2">0</pdfrwt>
<totfact> 0.19303514E+12</totfact>
</mgrwt>
</event>
<event>
 4    1  0.1750553E+006  0.2440293E+01  0.7546771E-02  0.2735453E+00
         22   -1    0    0    0    0  0.00000000000E+00  0.00000000000E+00  0.34149299844E+01  0.34149299844E+01  0.00000000000E+00 0. -1.
         22   -1    0    0    0    0 -0.00000000000E+00 -0.00000000000E+00 -0.22740816191E+01  0.22740816191E+01  0.00000000000E+00 0. -1.
          4    1    1    2  501    0  0.16103794222E+01  0.13224251372E+01  0.19439855478E+01  0.31199535152E+01  0.12700000000E+01 0. -1.
         -4    1    1    2    0  501 -0.16103794222E+01 -0.13224251372E+01 -0.80313718251E+00  0.25690580883E+01  0.12700000000E+01 0. -1.
<mgrwt>
<rscale>  0 0.24402930E+01</rscale>
<asrwt>0</asrwt>
<pdfrwt beam="1">0</pdfrwt>
<pdfrwt beam="2">0</pdfrwt>
<totfact> 0.22139793E+12</totfact>
</mgrwt>
</event>
<event>
 4    1  0.1750553E+006  0.2441457E+01  0.7546771E-02  0.2734916E+00
         22   -1    0    0    0    0  0.00000000000E+00  0.00000000000E+00  0.46819775121E+01  0.46819775121E+01  0.00000000000E+00 0. -1.
         22   -1    0    0    0    0 -0.00000000000E+00 -0.00000000000E+00 -0.51755634454E+01  0.51755634454E+01  0.00000000000E+00 0.  1.
          4    1    1    2  501    0 -0.74739141385E+00 -0.19465911662E+01  0.40330534210E+01  0.47144703828E+01  0.12700000000E+01 0. -1.
         -4    1    1    2    0  501  0.74739141385E+00  0.19465911662E+01 -0.45266393543E+01  0.51430705748E+01  0.12700000000E+01 0.  1.
<mgrwt>
<rscale>  0 0.24414568E+01</rscale>
<asrwt>0</asrwt>
<pdfrwt beam="1">0</pdfrwt>
<pdfrwt beam="2">0</pdfrwt>
<totfact> 0.58235489E+11</totfact>
</mgrwt>
</event>
<event>
 4    1  0.1750553E+006  0.2557643E+01  0.7546771E-02  0.2683650E+00
         22   -1    0    0    0    0  0.00000000000E+00  0.00000000000E+00  0.24524876443E+01  0.24524876443E+01  0.00000000000E+00 0.  1.
         22   -1    0    0    0    0 -0.00000000000E+00 -0.00000000000E+00 -0.61803435050E+01  0.61803435050E+01  0.00000000000E+00 0.  1.
          4    1    1    2  501    0 -0.18934381047E+01  0.11591063008E+01 -0.51182335071E+01  0.57216998791E+01  0.12700000000E+01 0.  1.
         -4    1    1    2    0  501  0.18934381047E+01 -0.11591063008E+01  0.13903776464E+01  0.29111312702E+01  0.12700000000E+01 0.  1.
<mgrwt>
<rscale>  0 0.25576425E+01</rscale>
<asrwt>0</asrwt>
<pdfrwt beam="1">0</pdfrwt>
<pdfrwt beam="2">0</pdfrwt>
<totfact> 0.10062838E+12</totfact>
</mgrwt>
</event>
<event>
 4    1  0.1750553E+006  0.2882509E+01  0.7546771E-02  0.2560665E+00
         22   -1    0    0    0    0  0.00000000000E+00  0.00000000000E+00  0.84295722603E+00  0.84295722603E+00  0.00000000000E+00 0. -1.
         22   -1    0    0    0    0 -0.00000000000E+00 -0.00000000000E+00 -0.19004851661E+02  0.19004851661E+02  0.00000000000E+00 0.  1.
          4    1    1    2  501    0  0.21535317707E+01 -0.14346631453E+01 -0.21957762222E+01  0.36235742915E+01  0.12700000000E+01 0. -1.
         -4    1    1    2    0  501 -0.21535317707E+01  0.14346631453E+01 -0.15966118213E+02  0.16224234596E+02  0.12700000000E+01 0.  1.
<mgrwt>
<rscale>  0 0.28825089E+01</rscale>
<asrwt>0</asrwt>
<pdfrwt beam="1">0</pdfrwt>
<pdfrwt beam="2">0</pdfrwt>
<totfact> 0.87714742E+11</totfact>
</mgrwt>
</event>
<event>
 4    1  0.1750553E+006  0.2570440E+01  0.7546771E-02  0.2678267E+00
         22   -1    0    0    0    0  0.00000000000E+00  0.00000000000E+00  0.38474011041E+02  0.38474011041E+02  0.00000000000E+00 0. -1.
         22   -1    0    0    0    0 -0.00000000000E+00 -0.00000000000E+00 -0.94949483140E+00  0.94949483140E+00  0.00000000000E+00 0.  1.
          4    1    1    2  501    0  0.22310061795E+01 -0.12988739018E+00  0.36602591629E+02  0.36692735974E+02  0.12700000000E+01 0. -1.
         -4    1    1    2    0  501 -0.22310061795E+01  0.12988739018E+00  0.92192458113E+00  0.27307698988E+01  0.12700000000E+01 0.  1.
<mgrwt>
<rscale>  0 0.25704395E+01</rscale>
<asrwt>0</asrwt>
<pdfrwt beam="1">0</pdfrwt>
<pdfrwt beam="2">0</pdfrwt>
<totfact> 0.31324554E+11</totfact>
</mgrwt>
</event>
<event>
 4    1  0.1750553E+006  0.2992341E+01  0.7546771E-02  0.2524606E+00
         22   -1    0    0    0    0  0.00000000000E+00  0.00000000000E+00  0.80652762119E+00  0.80652762119E+00  0.00000000000E+00 0. -1.
         22   -1    0    0    0    0 -0.00000000000E+00 -0.00000000000E+00 -0.21107114827E+02  0.21107114827E+02  0.00000000000E+00 0. -1.
          4    1    1    2  501    0  0.81045719678E+00  0.25854140339E+01 -0.26066669952E+01  0.39684782245E+01  0.12700000000E+01 0. -1.
         -4    1    1    2    0  501 -0.81045719678E+00 -0.25854140339E+01 -0.17693920210E+02  0.17945164224E+02  0.12700000000E+01 0. -1.
<mgrwt>
<rscale>  0 0.29923413E+01</rscale>
<asrwt>0</asrwt>
<pdfrwt beam="1">0</pdfrwt>
<pdfrwt beam="2">0</pdfrwt>
<totfact> 0.80926134E+11</totfact>
</mgrwt>
</event>
<event>
 4    1  0.1750553E+006  0.2059552E+01  0.7546771E-02  0.2941655E+00
         22   -1    0    0    0    0  0.00000000000E+00  0.00000000000E+00  0.12173908637E+02  0.12173908637E+02  0.00000000000E+00 0.  1.
         22   -1    0    0    0    0 -0.00000000000E+00 -0.00000000000E+00 -0.50458810252E+00  0.50458810252E+00  0.00000000000E+00 0. -1.
          4    1    1    2  501    0 -0.26263062549E-01 -0.16211610252E+01  0.93612242991E+01  0.95851068432E+01  0.12700000000E+01 0.  1.
         -4    1    1    2    0  501  0.26263062549E-01  0.16211610252E+01  0.23080962350E+01  0.30933898959E+01  0.12700000000E+01 0. -1.
<mgrwt>
<rscale>  0 0.20595516E+01</rscale>
<asrwt>0</asrwt>
<pdfrwt beam="1">0</pdfrwt>
<pdfrwt beam="2">0</pdfrwt>
<totfact> 0.27162121E+12</totfact>
</mgrwt>
</event>
<event>
 4    1  0.1750553E+006  0.3522443E+01  0.7546771E-02  0.2379076E+00
         22   -1    0    0    0    0  0.00000000000E+00  0.00000000000E+00  0.70178130724E+02  0.70178130724E+02  0.00000000000E+00 0. -1.
         22   -1    0    0    0    0 -0.00000000000E+00 -0.00000000000E+00 -0.20982832898E+00  0.20982832898E+00  0.00000000000E+00 0.  1.
          4    1    1    2  501    0 -0.30866046548E+01 -0.11258663181E+01  0.48946848881E+02  0.49073430883E+02  0.12700000000E+01 0. -1.
         -4    1    1    2    0  501  0.30866046548E+01  0.11258663181E+01  0.21021453514E+02  0.21314528170E+02  0.12700000000E+01 0.  1.
<mgrwt>
<rscale>  0 0.35224428E+01</rscale>
<asrwt>0</asrwt>
<pdfrwt beam="1">0</pdfrwt>
<pdfrwt beam="2">0</pdfrwt>
<totfact> 0.77577178E+11</totfact>
</mgrwt>
</event>
<event>
 4    1  0.1750553E+006  0.2087427E+01  0.7546771E-02  0.2924112E+00
         22   -1    0    0    0    0  0.00000000000E+00  0.00000000000E+00  0.20256789459E+00  0.20256789459E+00  0.00000000000E+00 0. -1.
         22   -1    0    0    0    0 -0.00000000000E+00 -0.00000000000E+00 -0.21556280448E+02  0.21556280448E+02  0.00000000000E+00 0.  1.
          4    1    1    2  501    0  0.91180130018E+00  0.13831374058E+01 -0.11177848520E+02  0.11371088261E+02  0.12700000000E+01 0.  1.
         -4    1    1    2    0  501 -0.91180130018E+00 -0.13831374058E+01 -0.10175864033E+02  0.10387760082E+02  0.12700000000E+01 0. -1.
<mgrwt>
<rscale>  0 0.20874268E+01</rscale>
<asrwt>0</asrwt>
<pdfrwt beam="1">0</pdfrwt>
<pdfrwt beam="2">0</pdfrwt>
<totfact> 0.37352703E+12</totfact>
</mgrwt>
</event>
<event>
 4    1  0.1750553E+006  0.2354897E+01  0.7546771E-02  0.2776177E+00
         22   -1    0    0    0    0  0.00000000000E+00  0.00000000000E+00  0.24095476123E+01  0.24095476123E+01  0.00000000000E+00 0.  1.
         22   -1    0    0    0    0 -0.00000000000E+00 -0.00000000000E+00 -0.85468409157E+01  0.85468409157E+01  0.00000000000E+00 0. -1.
          4    1    1    2  501    0  0.12512528506E+01  0.15385081633E+01  0.16142348315E+01  0.28550473124E+01  0.12700000000E+01 0.  1.
         -4    1    1    2    0  501 -0.12512528506E+01 -0.15385081633E+01 -0.77515281350E+01  0.81013412156E+01  0.12700000000E+01 0. -1.
<mgrwt>
<rscale>  0 0.23548973E+01</rscale>
<asrwt>0</asrwt>
<pdfrwt beam="1">0</pdfrwt>
<pdfrwt beam="2">0</pdfrwt>
<totfact> 0.69663599E+11</totfact>
</mgrwt>
</event>
<event>
 4    1  0.1750553E+006  0.2193148E+01  0.7546771E-02  0.2861509E+00
         22   -1    0    0    0    0  0.00000000000E+00  0.00000000000E+00  0.30297810828E+00  0.30297810828E+00  0.00000000000E+00 0.  1.
         22   -1    0    0    0    0 -0.00000000000E+00 -0.00000000000E+00 -0.17900309838E+02  0.17900309838E+02  0.00000000000E+00 0. -1.
          4    1    1    2  501    0  0.83275652369E+00 -0.15822504785E+01 -0.57374642163E+01  0.61423444740E+01  0.12700000000E+01 0.  1.
         -4    1    1    2    0  501 -0.83275652369E+00  0.15822504785E+01 -0.11859867514E+02  0.12060943473E+02  0.12700000000E+01 0. -1.
<mgrwt>
<rscale>  0 0.21931484E+01</rscale>
<asrwt>0</asrwt>
<pdfrwt beam="1">0</pdfrwt>
<pdfrwt beam="2">0</pdfrwt>
<totfact> 0.30014930E+12</totfact>
</mgrwt>
</event>
<event>
 4    1  0.1750553E+006  0.2603639E+01  0.7546771E-02  0.2664530E+00
         22   -1    0    0    0    0  0.00000000000E+00  0.00000000000E+00  0.49775215718E+01  0.49775215718E+01  0.00000000000E+00 0. -1.
         22   -1    0    0    0    0 -0.00000000000E+00 -0.00000000000E+00 -0.15223840828E+01  0.15223840828E+01  0.00000000000E+00 0.  1.
          4    1    1    2  501    0  0.38789103523E+00  0.22395482369E+01  0.27827269144E+01  0.38108404376E+01  0.12700000000E+01 0. -1.
         -4    1    1    2    0  501 -0.38789103523E+00 -0.22395482369E+01  0.67241057461E+00  0.26890652170E+01  0.12700000000E+01 0.  1.
<mgrwt>
<rscale>  0 0.26036389E+01</rscale>
<asrwt>0</asrwt>
<pdfrwt beam="1">0</pdfrwt>
<pdfrwt beam="2">0</pdfrwt>
<totfact> 0.22588299E+12</totfact>
</mgrwt>
</event>
<event>
 4    1  0.1750553E+006  0.2638293E+01  0.7546771E-02  0.2650532E+00
         22   -1    0    0    0    0  0.00000000000E+00  0.00000000000E+00  0.37707560529E+01  0.37707560529E+01  0.00000000000E+00 0.  1.
         22   -1    0    0    0    0 -0.00000000000E+00 -0.00000000000E+00 -0.18492507309E+01  0.18492507309E+01  0.00000000000E+00 0.  1.
          4    1    1    2  501    0 -0.16351821507E+00  0.23067190893E+01  0.84186392702E+00  0.27693548049E+01  0.12700000000E+01 0.  1.
         -4    1    1    2    0  501  0.16351821507E+00 -0.23067190893E+01  0.10796413950E+01  0.28506519790E+01  0.12700000000E+01 0.  1.
<mgrwt>
<rscale>  0 0.26382932E+01</rscale>
<asrwt>0</asrwt>
<pdfrwt beam="1">0</pdfrwt>
<pdfrwt beam="2">0</pdfrwt>
<totfact> 0.25042411E+12</totfact>
</mgrwt>
</event>
<event>
 4    1  0.1750553E+006  0.2188779E+01  0.7546771E-02  0.2863981E+00
         22   -1    0    0    0    0  0.00000000000E+00  0.00000000000E+00  0.90587597861E+00  0.90587597861E+00  0.00000000000E+00 0.  1.
         22   -1    0    0    0    0 -0.00000000000E+00 -0.00000000000E+00 -0.55616855210E+01  0.55616855210E+01  0.00000000000E+00 0.  1.
          4    1    1    2  501    0  0.74003988170E+00 -0.16217871245E+01 -0.30445631131E+01  0.37496822603E+01  0.12700000000E+01 0.  1.
         -4    1    1    2    0  501 -0.74003988170E+00  0.16217871245E+01 -0.16112464293E+01  0.27178792393E+01  0.12700000000E+01 0.  1.
<mgrwt>
<rscale>  0 0.21887788E+01</rscale>
<asrwt>0</asrwt>
<pdfrwt beam="1">0</pdfrwt>
<pdfrwt beam="2">0</pdfrwt>
<totfact> 0.35887350E+12</totfact>
</mgrwt>
</event>
<event>
 4    1  0.1750553E+006  0.3199485E+01  0.7546771E-02  0.2462667E+00
         22   -1    0    0    0    0  0.00000000000E+00  0.00000000000E+00  0.88038767117E+01  0.88038767117E+01  0.00000000000E+00 0.  1.
         22   -1    0    0    0    0 -0.00000000000E+00 -0.00000000000E+00 -0.15936785900E+01  0.15936785900E+01  0.00000000000E+00 0. -1.
          4    1    1    2  501    0  0.26198722325E+01  0.13266771408E+01  0.63084585943E+01  0.70734258027E+01  0.12700000000E+01 0.  1.
         -4    1    1    2    0  501 -0.26198722325E+01 -0.13266771408E+01  0.90173952745E+00  0.33241294990E+01  0.12700000000E+01 0. -1.
<mgrwt>
<rscale>  0 0.31994848E+01</rscale>
<asrwt>0</asrwt>
<pdfrwt beam="1">0</pdfrwt>
<pdfrwt beam="2">0</pdfrwt>
<totfact> 0.10845331E+12</totfact>
</mgrwt>
</event>
<event>
 4    1  0.1750553E+006  0.3271028E+01  0.7546771E-02  0.2442900E+00
         22   -1    0    0    0    0  0.00000000000E+00  0.00000000000E+00  0.41725267939E+00  0.41725267939E+00  0.00000000000E+00 0.  1.
         22   -1    0    0    0    0 -0.00000000000E+00 -0.00000000000E+00 -0.25806246370E+02  0.25806246370E+02  0.00000000000E+00 0.  1.
          4    1    1    2  501    0 -0.25667526806E+01  0.15806667644E+01 -0.13737217720E+02  0.14121288094E+02  0.12700000000E+01 0.  1.
         -4    1    1    2    0  501  0.25667526806E+01 -0.15806667644E+01 -0.11651775971E+02  0.12102210956E+02  0.12700000000E+01 0.  1.
<mgrwt>
<rscale>  0 0.32710284E+01</rscale>
<asrwt>0</asrwt>
<pdfrwt beam="1">0</pdfrwt>
<pdfrwt beam="2">0</pdfrwt>
<totfact> 0.13253654E+12</totfact>
</mgrwt>
</event>
<event>
 4    1  0.1750553E+006  0.3947083E+01  0.7546771E-02  0.2287525E+00
         22   -1    0    0    0    0  0.00000000000E+00  0.00000000000E+00  0.19145363036E+01  0.19145363036E+01  0.00000000000E+00 0.  1.
         22   -1    0    0    0    0 -0.00000000000E+00 -0.00000000000E+00 -0.11729294418E+02  0.11729294418E+02  0.00000000000E+00 0. -1.
          4    1    1    2  501    0 -0.23912217914E+01 -0.28720421972E+01 -0.11322798878E+01  0.41062788243E+01  0.12700000000E+01 0.  1.
         -4    1    1    2    0  501  0.23912217914E+01  0.28720421972E+01 -0.86824782262E+01  0.95375518970E+01  0.12700000000E+01 0. -1.
<mgrwt>
<rscale>  0 0.39470835E+01</rscale>
<asrwt>0</asrwt>
<pdfrwt beam="1">0</pdfrwt>
<pdfrwt beam="2">0</pdfrwt>
<totfact> 0.61990830E+11</totfact>
</mgrwt>
</event>
<event>
 4    1  0.1750553E+006  0.2213522E+01  0.7546771E-02  0.2850107E+00
         22   -1    0    0    0    0  0.00000000000E+00  0.00000000000E+00  0.11087250290E+01  0.11087250290E+01  0.00000000000E+00 0. -1.
         22   -1    0    0    0    0 -0.00000000000E+00 -0.00000000000E+00 -0.12418419954E+02  0.12418419954E+02  0.00000000000E+00 0.  1.
          4    1    1    2  501    0 -0.17664980911E+01  0.40775754215E+00 -0.22651176080E+00  0.22250818630E+01  0.12700000000E+01 0. -1.
         -4    1    1    2    0  501  0.17664980911E+01 -0.40775754215E+00 -0.11083183164E+02  0.11302063120E+02  0.12700000000E+01 0.  1.
<mgrwt>
<rscale>  0 0.22135225E+01</rscale>
<asrwt>0</asrwt>
<pdfrwt beam="1">0</pdfrwt>
<pdfrwt beam="2">0</pdfrwt>
<totfact> 0.10836679E+12</totfact>
</mgrwt>
</event>
<event>
 4    1  0.1750553E+006  0.2308725E+01  0.7546771E-02  0.2799376E+00
         22   -1    0    0    0    0  0.00000000000E+00  0.00000000000E+00  0.52093229894E+01  0.52093229894E+01  0.00000000000E+00 0. -1.
         22   -1    0    0    0    0 -0.00000000000E+00 -0.00000000000E+00 -0.12581189142E+01  0.12581189142E+01  0.00000000000E+00 0. -1.
          4    1    1    2  501    0 -0.70100538418E+00 -0.17960798648E+01  0.33729191668E+01  0.40873946635E+01  0.12700000000E+01 0. -1.
         -4    1    1    2    0  501  0.70100538418E+00  0.17960798648E+01  0.57828490845E+00  0.23800472400E+01  0.12700000000E+01 0. -1.
<mgrwt>
<rscale>  0 0.23087251E+01</rscale>
<asrwt>0</asrwt>
<pdfrwt beam="1">0</pdfrwt>
<pdfrwt beam="2">0</pdfrwt>
<totfact> 0.26642827E+12</totfact>
</mgrwt>
</event>
<event>
 4    1  0.1750553E+006  0.2891889E+01  0.7546771E-02  0.2557489E+00
         22   -1    0    0    0    0  0.00000000000E+00  0.00000000000E+00  0.55137435652E+00  0.55137435652E+00  0.00000000000E+00 0. -1.
         22   -1    0    0    0    0 -0.00000000000E+00 -0.00000000000E+00 -0.26646990571E+02  0.26646990571E+02  0.00000000000E+00 0.  1.
          4    1    1    2  501    0 -0.25321597929E+01  0.58162467042E+00 -0.41219842563E+01  0.50352531896E+01  0.12700000000E+01 0. -1.
         -4    1    1    2    0  501  0.25321597929E+01 -0.58162467042E+00 -0.21973631959E+02  0.22163111738E+02  0.12700000000E+01 0.  1.
<mgrwt>
<rscale>  0 0.28918887E+01</rscale>
<asrwt>0</asrwt>
<pdfrwt beam="1">0</pdfrwt>
<pdfrwt beam="2">0</pdfrwt>
<totfact> 0.92921151E+11</totfact>
</mgrwt>
</event>
<event>
 4    1  0.1750553E+006  0.2618867E+01  0.7546771E-02  0.2658337E+00
         22   -1    0    0    0    0  0.00000000000E+00  0.00000000000E+00  0.15472475105E+02  0.15472475105E+02  0.00000000000E+00 0. -1.
         22   -1    0    0    0    0 -0.00000000000E+00 -0.00000000000E+00 -0.50754022383E+00  0.50754022383E+00  0.00000000000E+00 0. -1.
          4    1    1    2  501    0  0.22861625815E+01 -0.13792457686E+00  0.10325760101E+02  0.10652689059E+02  0.12700000000E+01 0. -1.
         -4    1    1    2    0  501 -0.22861625815E+01  0.13792457686E+00  0.46391747805E+01  0.53273262695E+01  0.12700000000E+01 0. -1.
<mgrwt>
<rscale>  0 0.26188667E+01</rscale>
<asrwt>0</asrwt>
<pdfrwt beam="1">0</pdfrwt>
<pdfrwt beam="2">0</pdfrwt>
<totfact> 0.20112834E+12</totfact>
</mgrwt>
</event>
<event>
 4    1  0.1750553E+006  0.3277446E+01  0.7546771E-02  0.2441164E+00
         22   -1    0    0    0    0  0.00000000000E+00  0.00000000000E+00  0.47406725517E+02  0.47406725517E+02  0.00000000000E+00 0.  1.
         22   -1    0    0    0    0 -0.00000000000E+00 -0.00000000000E+00 -0.25498591093E+00  0.25498591093E+00  0.00000000000E+00 0. -1.
          4    1    1    2  501    0  0.54240990039E+00  0.29722962187E+01  0.31529174367E+02  0.31699061336E+02  0.12700000000E+01 0. -1.
         -4    1    1    2    0  501 -0.54240990039E+00 -0.29722962187E+01  0.15622565239E+02  0.15962650092E+02  0.12700000000E+01 0.  1.
<mgrwt>
<rscale>  0 0.32774462E+01</rscale>
<asrwt>0</asrwt>
<pdfrwt beam="1">0</pdfrwt>
<pdfrwt beam="2">0</pdfrwt>
<totfact> 0.10530996E+12</totfact>
</mgrwt>
</event>
<event>
 4    1  0.1750553E+006  0.2927179E+01  0.7546771E-02  0.2545705E+00
         22   -1    0    0    0    0  0.00000000000E+00  0.00000000000E+00  0.34154449208E+02  0.34154449208E+02  0.00000000000E+00 0.  1.
         22   -1    0    0    0    0 -0.00000000000E+00 -0.00000000000E+00 -0.27253386879E+00  0.27253386879E+00  0.00000000000E+00 0.  1.
          4    1    1    2  501    0 -0.44163442237E+00 -0.26000838695E+01  0.21793976104E+02  0.21989674202E+02  0.12700000000E+01 0.  1.
         -4    1    1    2    0  501  0.44163442237E+00  0.26000838695E+01  0.12087939236E+02  0.12437308875E+02  0.12700000000E+01 0.  1.
<mgrwt>
<rscale>  0 0.29271790E+01</rscale>
<asrwt>0</asrwt>
<pdfrwt beam="1">0</pdfrwt>
<pdfrwt beam="2">0</pdfrwt>
<totfact> 0.14963084E+12</totfact>
</mgrwt>
</event>
<event>
 4    1  0.1750553E+006  0.2627415E+01  0.7546771E-02  0.2654890E+00
         22   -1    0    0    0    0  0.00000000000E+00  0.00000000000E+00  0.24661304255E+01  0.24661304255E+01  0.00000000000E+00 0.  1.
         22   -1    0    0    0    0 -0.00000000000E+00 -0.00000000000E+00 -0.28005462891E+01  0.28005462891E+01  0.00000000000E+00 0.  1.
          4    1    1    2  501    0  0.14796034808E+01 -0.17610171538E+01 -0.22393101154E+00  0.26369400778E+01  0.12700000000E+01 0.  1.
         -4    1    1    2    0  501 -0.14796034808E+01  0.17610171538E+01 -0.11048485207E+00  0.26297366367E+01  0.12700000000E+01 0.  1.
<mgrwt>
<rscale>  0 0.26274147E+01</rscale>
<asrwt>0</asrwt>
<pdfrwt beam="1">0</pdfrwt>
<pdfrwt beam="2">0</pdfrwt>
<totfact> 0.25408349E+12</totfact>
</mgrwt>
</event>
<event>
 4    1  0.1750553E+006  0.2147989E+01  0.7546771E-02  0.2887523E+00
         22   -1    0    0    0    0  0.00000000000E+00  0.00000000000E+00  0.44589097293E+01  0.44589097293E+01  0.00000000000E+00 0.  1.
         22   -1    0    0    0    0 -0.00000000000E+00 -0.00000000000E+00 -0.11013035222E+01  0.11013035222E+01  0.00000000000E+00 0.  1.
          4    1    1    2  501    0 -0.14293575718E+01  0.97872098873E+00  0.23622310432E+01  0.31928033674E+01  0.12700000000E+01 0.  1.
         -4    1    1    2    0  501  0.14293575718E+01 -0.97872098873E+00  0.99537516394E+00  0.23674098840E+01  0.12700000000E+01 0.  1.
<mgrwt>
<rscale>  0 0.21479893E+01</rscale>
<asrwt>0</asrwt>
<pdfrwt beam="1">0</pdfrwt>
<pdfrwt beam="2">0</pdfrwt>
<totfact> 0.37297889E+12</totfact>
</mgrwt>
</event>
<event>
 4    1  0.1750553E+006  0.2036247E+01  0.7546771E-02  0.2956679E+00
         22   -1    0    0    0    0  0.00000000000E+00  0.00000000000E+00  0.13692288565E+01  0.13692288565E+01  0.00000000000E+00 0.  1.
         22   -1    0    0    0    0 -0.00000000000E+00 -0.00000000000E+00 -0.36374619358E+01  0.36374619358E+01  0.00000000000E+00 0. -1.
          4    1    1    2  501    0 -0.13863648488E+01  0.78191786882E+00 -0.10959175328E+00  0.20391943016E+01  0.12700000000E+01 0.  1.
         -4    1    1    2    0  501  0.13863648488E+01 -0.78191786882E+00 -0.21586413260E+01  0.29674964906E+01  0.12700000000E+01 0. -1.
<mgrwt>
<rscale>  0 0.20362473E+01</rscale>
<asrwt>0</asrwt>
<pdfrwt beam="1">0</pdfrwt>
<pdfrwt beam="2">0</pdfrwt>
<totfact> 0.36927728E+12</totfact>
</mgrwt>
</event>
<event>
 4    1  0.1750553E+006  0.2155704E+01  0.7546771E-02  0.2883004E+00
         22   -1    0    0    0    0  0.00000000000E+00  0.00000000000E+00  0.44650254239E+02  0.44650254239E+02  0.00000000000E+00 0.  1.
         22   -1    0    0    0    0 -0.00000000000E+00 -0.00000000000E+00 -0.19544202352E+00  0.19544202352E+00  0.00000000000E+00 0.  1.
          4    1    1    2  501    0  0.63110685166E+00 -0.16235344760E+01  0.37558460438E+02  0.37620273929E+02  0.12700000000E+01 0.  1.
         -4    1    1    2    0  501 -0.63110685166E+00  0.16235344760E+01  0.68963517780E+01  0.72254223336E+01  0.12700000000E+01 0.  1.
<mgrwt>
<rscale>  0 0.21557041E+01</rscale>
<asrwt>0</asrwt>
<pdfrwt beam="1">0</pdfrwt>
<pdfrwt beam="2">0</pdfrwt>
<totfact> 0.15330151E+12</totfact>
</mgrwt>
</event>
<event>
 4    1  0.1750553E+006  0.2449595E+01  0.7546771E-02  0.2731178E+00
         22   -1    0    0    0    0  0.00000000000E+00  0.00000000000E+00  0.95021253544E+00  0.95021253544E+00  0.00000000000E+00 0. -1.
         22   -1    0    0    0    0 -0.00000000000E+00 -0.00000000000E+00 -0.74082526172E+01  0.74082526172E+01  0.00000000000E+00 0.  1.
          4    1    1    2  501    0 -0.18675342166E+01 -0.94864690697E+00 -0.16235025563E+01  0.29387540820E+01  0.12700000000E+01 0. -1.
         -4    1    1    2    0  501  0.18675342166E+01  0.94864690697E+00 -0.48345375254E+01  0.54197110706E+01  0.12700000000E+01 0.  1.
<mgrwt>
<rscale>  0 0.24495949E+01</rscale>
<asrwt>0</asrwt>
<pdfrwt beam="1">0</pdfrwt>
<pdfrwt beam="2">0</pdfrwt>
<totfact> 0.24141317E+12</totfact>
</mgrwt>
</event>
<event>
 4    1  0.1750553E+006  0.2383481E+01  0.7546771E-02  0.2762240E+00
         22   -1    0    0    0    0  0.00000000000E+00  0.00000000000E+00  0.20665063809E+02  0.20665063809E+02  0.00000000000E+00 0. -1.
         22   -1    0    0    0    0 -0.00000000000E+00 -0.00000000000E+00 -0.28095570395E+00  0.28095570395E+00  0.00000000000E+00 0. -1.
          4    1    1    2  501    0 -0.11610652090E+01  0.16492444752E+01  0.11728679434E+02  0.11968412636E+02  0.12700000000E+01 0. -1.
         -4    1    1    2    0  501  0.11610652090E+01 -0.16492444752E+01  0.86554286711E+01  0.89776068771E+01  0.12700000000E+01 0. -1.
<mgrwt>
<rscale>  0 0.23834806E+01</rscale>
<asrwt>0</asrwt>
<pdfrwt beam="1">0</pdfrwt>
<pdfrwt beam="2">0</pdfrwt>
<totfact> 0.27317958E+12</totfact>
</mgrwt>
</event>
<event>
 4    1  0.1750553E+006  0.2337936E+01  0.7546771E-02  0.2784598E+00
         22   -1    0    0    0    0  0.00000000000E+00  0.00000000000E+00  0.33553659335E+01  0.33553659335E+01  0.00000000000E+00 0. -1.
         22   -1    0    0    0    0 -0.00000000000E+00 -0.00000000000E+00 -0.16706570083E+01  0.16706570083E+01  0.00000000000E+00 0. -1.
          4    1    1    2  501    0  0.15497693810E+00 -0.19567897525E+01  0.44560833964E+00  0.23800232729E+01  0.12700000000E+01 0. -1.
         -4    1    1    2    0  501 -0.15497693810E+00  0.19567897525E+01  0.12391005856E+01  0.26459996690E+01  0.12700000000E+01 0. -1.
<mgrwt>
<rscale>  0 0.23379358E+01</rscale>
<asrwt>0</asrwt>
<pdfrwt beam="1">0</pdfrwt>
<pdfrwt beam="2">0</pdfrwt>
<totfact> 0.32288382E+12</totfact>
</mgrwt>
</event>
<event>
 4    1  0.1750553E+006  0.2482703E+01  0.7546771E-02  0.2716205E+00
         22   -1    0    0    0    0  0.00000000000E+00  0.00000000000E+00  0.11680378355E+02  0.11680378355E+02  0.00000000000E+00 0.  1.
         22   -1    0    0    0    0 -0.00000000000E+00 -0.00000000000E+00 -0.52839233558E+00  0.52839233558E+00  0.00000000000E+00 0. -1.
          4    1    1    2  501    0  0.19961966371E+01 -0.75240340783E+00  0.53560728889E+01  0.59035013927E+01  0.12700000000E+01 0. -1.
         -4    1    1    2    0  501 -0.19961966371E+01  0.75240340783E+00  0.57959131303E+01  0.63052692977E+01  0.12700000000E+01 0.  1.
<mgrwt>
<rscale>  0 0.24827025E+01</rscale>
<asrwt>0</asrwt>
<pdfrwt beam="1">0</pdfrwt>
<pdfrwt beam="2">0</pdfrwt>
<totfact> 0.27119981E+12</totfact>
</mgrwt>
</event>
<event>
 4    1  0.1750553E+006  0.5266276E+01  0.7546771E-02  0.2092500E+00
         22   -1    0    0    0    0  0.00000000000E+00  0.00000000000E+00  0.25618843587E+02  0.25618843587E+02  0.00000000000E+00 0.  1.
         22   -1    0    0    0    0 -0.00000000000E+00 -0.00000000000E+00 -0.12992905954E+01  0.12992905954E+01  0.00000000000E+00 0. -1.
          4    1    1    2  501    0  0.41393130802E+01  0.29978074510E+01  0.17656863364E+02  0.18425484692E+02  0.12700000000E+01 0.  1.
         -4    1    1    2    0  501 -0.41393130802E+01 -0.29978074510E+01  0.66626896277E+01  0.84926494902E+01  0.12700000000E+01 0. -1.
<mgrwt>
<rscale>  0 0.52662759E+01</rscale>
<asrwt>0</asrwt>
<pdfrwt beam="1">0</pdfrwt>
<pdfrwt beam="2">0</pdfrwt>
<totfact> 0.36794545E+11</totfact>
</mgrwt>
</event>
<event>
 4    1  0.1750553E+006  0.2768205E+01  0.7546771E-02  0.2600927E+00
         22   -1    0    0    0    0  0.00000000000E+00  0.00000000000E+00  0.17509939209E+02  0.17509939209E+02  0.00000000000E+00 0. -1.
         22   -1    0    0    0    0 -0.00000000000E+00 -0.00000000000E+00 -0.45320827931E+00  0.45320827931E+00  0.00000000000E+00 0.  1.
          4    1    1    2  501    0  0.24403525421E+01  0.30779785604E+00  0.68634380381E+01  0.74006581973E+01  0.12700000000E+01 0.  1.
         -4    1    1    2    0  501 -0.24403525421E+01 -0.30779785604E+00  0.10193292891E+02  0.10562489291E+02  0.12700000000E+01 0.  1.
<mgrwt>
<rscale>  0 0.27682052E+01</rscale>
<asrwt>0</asrwt>
<pdfrwt beam="1">0</pdfrwt>
<pdfrwt beam="2">0</pdfrwt>
<totfact> 0.19614811E+12</totfact>
</mgrwt>
</event>
<event>
 4    1  0.1750553E+006  0.2617041E+01  0.7546771E-02  0.2659076E+00
         22   -1    0    0    0    0  0.00000000000E+00  0.00000000000E+00  0.17047888465E+02  0.17047888465E+02  0.00000000000E+00 0. -1.
         22   -1    0    0    0    0 -0.00000000000E+00 -0.00000000000E+00 -0.50186740271E+00  0.50186740271E+00  0.00000000000E+00 0.  1.
          4    1    1    2  501    0 -0.19201263803E+01  0.12446351287E+01  0.43536746847E+01  0.50797032571E+01  0.12700000000E+01 0.  1.
         -4    1    1    2    0  501  0.19201263803E+01 -0.12446351287E+01  0.12192346378E+02  0.12470052611E+02  0.12700000000E+01 0. -1.
<mgrwt>
<rscale>  0 0.26170407E+01</rscale>
<asrwt>0</asrwt>
<pdfrwt beam="1">0</pdfrwt>
<pdfrwt beam="2">0</pdfrwt>
<totfact> 0.18071023E+12</totfact>
</mgrwt>
</event>
<event>
 4    1  0.1750553E+006  0.2426341E+01  0.7546771E-02  0.2741922E+00
         22   -1    0    0    0    0  0.00000000000E+00  0.00000000000E+00  0.40645617618E+01  0.40645617618E+01  0.00000000000E+00 0.  1.
         22   -1    0    0    0    0 -0.00000000000E+00 -0.00000000000E+00 -0.32431794157E+01  0.32431794157E+01  0.00000000000E+00 0. -1.
          4    1    1    2  501    0  0.14762559373E+01  0.14473774064E+01  0.31288358469E+01  0.39593871629E+01  0.12700000000E+01 0.  1.
         -4    1    1    2    0  501 -0.14762559373E+01 -0.14473774064E+01 -0.23074535008E+01  0.33483540146E+01  0.12700000000E+01 0. -1.
<mgrwt>
<rscale>  0 0.24263415E+01</rscale>
<asrwt>0</asrwt>
<pdfrwt beam="1">0</pdfrwt>
<pdfrwt beam="2">0</pdfrwt>
<totfact> 0.11930641E+12</totfact>
</mgrwt>
</event>
<event>
 4    1  0.1750553E+006  0.5425286E+01  0.7546771E-02  0.2075418E+00
         22   -1    0    0    0    0  0.00000000000E+00  0.00000000000E+00  0.70731015311E+02  0.70731015311E+02  0.00000000000E+00 0. -1.
         22   -1    0    0    0    0 -0.00000000000E+00 -0.00000000000E+00 -0.54037138020E+00  0.54037138020E+00  0.00000000000E+00 0. -1.
          4    1    1    2  501    0  0.19895248686E+01 -0.48849381828E+01  0.52182151270E+02  0.52463421938E+02  0.12700000000E+01 0. -1.
         -4    1    1    2    0  501 -0.19895248686E+01  0.48849381828E+01  0.18008492660E+02  0.18807964753E+02  0.12700000000E+01 0. -1.
<mgrwt>
<rscale>  0 0.54252862E+01</rscale>
<asrwt>0</asrwt>
<pdfrwt beam="1">0</pdfrwt>
<pdfrwt beam="2">0</pdfrwt>
<totfact> 0.26528232E+11</totfact>
</mgrwt>
</event>
<event>
 4    1  0.1750553E+006  0.2662901E+01  0.7546771E-02  0.2640796E+00
         22   -1    0    0    0    0  0.00000000000E+00  0.00000000000E+00  0.50748858380E+00  0.50748858380E+00  0.00000000000E+00 0. -1.
         22   -1    0    0    0    0 -0.00000000000E+00 -0.00000000000E+00 -0.17363675438E+02  0.17363675438E+02  0.00000000000E+00 0.  1.
          4    1    1    2  501    0  0.17498544789E+01  0.15543970332E+01 -0.44793639232E+01  0.52111171538E+01  0.12700000000E+01 0.  1.
         -4    1    1    2    0  501 -0.17498544789E+01 -0.15543970332E+01 -0.12376822931E+02  0.12660046868E+02  0.12700000000E+01 0. -1.
<mgrwt>
<rscale>  0 0.26629008E+01</rscale>
<asrwt>0</asrwt>
<pdfrwt beam="1">0</pdfrwt>
<pdfrwt beam="2">0</pdfrwt>
<totfact> 0.17444212E+12</totfact>
</mgrwt>
</event>
<event>
 4    1  0.1750553E+006  0.2168199E+01  0.7546771E-02  0.2875752E+00
         22   -1    0    0    0    0  0.00000000000E+00  0.00000000000E+00  0.29266920845E+01  0.29266920845E+01  0.00000000000E+00 0.  1.
         22   -1    0    0    0    0 -0.00000000000E+00 -0.00000000000E+00 -0.35609181389E+01  0.35609181389E+01  0.00000000000E+00 0. -1.
          4    1    1    2  501    0 -0.16924965120E+01 -0.47290850482E+00  0.20861812128E+01  0.30088600748E+01  0.12700000000E+01 0.  1.
         -4    1    1    2    0  501  0.16924965120E+01  0.47290850482E+00 -0.27204072672E+01  0.34787501486E+01  0.12700000000E+01 0. -1.
<mgrwt>
<rscale>  0 0.21681990E+01</rscale>
<asrwt>0</asrwt>
<pdfrwt beam="1">0</pdfrwt>
<pdfrwt beam="2">0</pdfrwt>
<totfact> 0.15714185E+12</totfact>
</mgrwt>
</event>
<event>
 4    1  0.1750553E+006  0.3732008E+01  0.7546771E-02  0.2331649E+00
         22   -1    0    0    0    0  0.00000000000E+00  0.00000000000E+00  0.12114558661E+02  0.12114558661E+02  0.00000000000E+00 0.  1.
         22   -1    0    0    0    0 -0.00000000000E+00 -0.00000000000E+00 -0.16869143717E+01  0.16869143717E+01  0.00000000000E+00 0. -1.
          4    1    1    2  501    0  0.18454749646E+01  0.29848289012E+01  0.91081301804E+01  0.98430644008E+01  0.12700000000E+01 0.  1.
         -4    1    1    2    0  501 -0.18454749646E+01 -0.29848289012E+01  0.13195141091E+01  0.39584086321E+01  0.12700000000E+01 0. -1.
<mgrwt>
<rscale>  0 0.37320077E+01</rscale>
<asrwt>0</asrwt>
<pdfrwt beam="1">0</pdfrwt>
<pdfrwt beam="2">0</pdfrwt>
<totfact> 0.68976350E+11</totfact>
</mgrwt>
</event>
<event>
 4    1  0.1750553E+006  0.2700229E+01  0.7546771E-02  0.2626338E+00
         22   -1    0    0    0    0  0.00000000000E+00  0.00000000000E+00  0.67100693763E+01  0.67100693763E+01  0.00000000000E+00 0. -1.
         22   -1    0    0    0    0 -0.00000000000E+00 -0.00000000000E+00 -0.16623911032E+01  0.16623911032E+01  0.00000000000E+00 0.  1.
          4    1    1    2  501    0 -0.10699273897E+01  0.21292233550E+01  0.49875216940E+01  0.56715614572E+01  0.12700000000E+01 0. -1.
         -4    1    1    2    0  501  0.10699273897E+01 -0.21292233550E+01  0.60156579056E-01  0.27008990223E+01  0.12700000000E+01 0.  1.
<mgrwt>
<rscale>  0 0.27002290E+01</rscale>
<asrwt>0</asrwt>
<pdfrwt beam="1">0</pdfrwt>
<pdfrwt beam="2">0</pdfrwt>
<totfact> 0.14309634E+12</totfact>
</mgrwt>
</event>
<event>
 4    1  0.1750553E+006  0.2025182E+01  0.7546771E-02  0.2963932E+00
         22   -1    0    0    0    0  0.00000000000E+00  0.00000000000E+00  0.48327200098E+01  0.48327200098E+01  0.00000000000E+00 0.  1.
         22   -1    0    0    0    0 -0.00000000000E+00 -0.00000000000E+00 -0.85840160549E+00  0.85840160549E+00  0.00000000000E+00 0.  1.
          4    1    1    2  501    0 -0.15656766930E+01 -0.19265866682E+00  0.16841024972E+01  0.26339252248E+01  0.12700000000E+01 0.  1.
         -4    1    1    2    0  501  0.15656766930E+01  0.19265866682E+00  0.22902159071E+01  0.30571963905E+01  0.12700000000E+01 0.  1.
<mgrwt>
<rscale>  0 0.20251817E+01</rscale>
<asrwt>0</asrwt>
<pdfrwt beam="1">0</pdfrwt>
<pdfrwt beam="2">0</pdfrwt>
<totfact> 0.45069089E+12</totfact>
</mgrwt>
</event>
<event>
 4    1  0.1750553E+006  0.2259302E+01  0.7546771E-02  0.2825204E+00
         22   -1    0    0    0    0  0.00000000000E+00  0.00000000000E+00  0.29253733122E+02  0.29253733122E+02  0.00000000000E+00 0.  1.
         22   -1    0    0    0    0 -0.00000000000E+00 -0.00000000000E+00 -0.52258542785E+00  0.52258542785E+00  0.00000000000E+00 0. -1.
          4    1    1    2  501    0  0.13267845339E+01  0.13157458846E+01  0.26516583322E+02  0.26612659309E+02  0.12700000000E+01 0.  1.
         -4    1    1    2    0  501 -0.13267845339E+01 -0.13157458846E+01  0.22145643718E+01  0.31636592404E+01  0.12700000000E+01 0. -1.
<mgrwt>
<rscale>  0 0.22593018E+01</rscale>
<asrwt>0</asrwt>
<pdfrwt beam="1">0</pdfrwt>
<pdfrwt beam="2">0</pdfrwt>
<totfact> 0.87695214E+11</totfact>
</mgrwt>
</event>
<event>
 4    1  0.1750553E+006  0.4847901E+01  0.7546771E-02  0.2141609E+00
         22   -1    0    0    0    0  0.00000000000E+00  0.00000000000E+00  0.14090205090E+02  0.14090205090E+02  0.00000000000E+00 0.  1.
         22   -1    0    0    0    0 -0.00000000000E+00 -0.00000000000E+00 -0.19484627415E+01  0.19484627415E+01  0.00000000000E+00 0.  1.
          4    1    1    2  501    0  0.46720311946E+01  0.24771998444E+00  0.91134896132E+01  0.10322685387E+02  0.12700000000E+01 0.  1.
         -4    1    1    2    0  501 -0.46720311946E+01 -0.24771998444E+00  0.30282527354E+01  0.57159824443E+01  0.12700000000E+01 0.  1.
<mgrwt>
<rscale>  0 0.48479006E+01</rscale>
<asrwt>0</asrwt>
<pdfrwt beam="1">0</pdfrwt>
<pdfrwt beam="2">0</pdfrwt>
<totfact> 0.48542353E+11</totfact>
</mgrwt>
</event>
<event>
 4    1  0.1750553E+006  0.2751587E+01  0.7546771E-02  0.2607033E+00
         22   -1    0    0    0    0  0.00000000000E+00  0.00000000000E+00  0.39267758293E+00  0.39267758293E+00  0.00000000000E+00 0. -1.
         22   -1    0    0    0    0 -0.00000000000E+00 -0.00000000000E+00 -0.39223011885E+02  0.39223011885E+02  0.00000000000E+00 0.  1.
          4    1    1    2  501    0  0.23139286073E+01  0.77721800636E+00 -0.33538941443E+02  0.33651624427E+02  0.12700000000E+01 0.  1.
         -4    1    1    2    0  501 -0.23139286073E+01 -0.77721800636E+00 -0.52913928592E+01  0.59640650415E+01  0.12700000000E+01 0. -1.
<mgrwt>
<rscale>  0 0.27515874E+01</rscale>
<asrwt>0</asrwt>
<pdfrwt beam="1">0</pdfrwt>
<pdfrwt beam="2">0</pdfrwt>
<totfact> 0.83067428E+11</totfact>
</mgrwt>
</event>
<event>
 4    1  0.1750553E+006  0.2354776E+01  0.7546771E-02  0.2776237E+00
         22   -1    0    0    0    0  0.00000000000E+00  0.00000000000E+00  0.22701028768E+01  0.22701028768E+01  0.00000000000E+00 0.  1.
         22   -1    0    0    0    0 -0.00000000000E+00 -0.00000000000E+00 -0.22082157387E+02  0.22082157387E+02  0.00000000000E+00 0. -1.
          4    1    1    2  501    0  0.24184019413E+00  0.19681415561E+01  0.15769447879E+01  0.28340294156E+01  0.12700000000E+01 0.  1.
         -4    1    1    2    0  501 -0.24184019413E+00 -0.19681415561E+01 -0.21388999298E+02  0.21518230848E+02  0.12700000000E+01 0. -1.
<mgrwt>
<rscale>  0 0.23547755E+01</rscale>
<asrwt>0</asrwt>
<pdfrwt beam="1">0</pdfrwt>
<pdfrwt beam="2">0</pdfrwt>
<totfact> 0.23297080E+11</totfact>
</mgrwt>
</event>
<event>
 4    1  0.1750553E+006  0.2382122E+01  0.7546771E-02  0.2762896E+00
         22   -1    0    0    0    0  0.00000000000E+00  0.00000000000E+00  0.41283377097E+00  0.41283377097E+00  0.00000000000E+00 0. -1.
         22   -1    0    0    0    0 -0.00000000000E+00 -0.00000000000E+00 -0.17410379083E+02  0.17410379083E+02  0.00000000000E+00 0.  1.
          4    1    1    2  501    0  0.12300307776E+01  0.15964423935E+01 -0.44099673637E+01  0.50122166931E+01  0.12700000000E+01 0. -1.
         -4    1    1    2    0  501 -0.12300307776E+01 -0.15964423935E+01 -0.12587577949E+02  0.12810996161E+02  0.12700000000E+01 0.  1.
<mgrwt>
<rscale>  0 0.23821217E+01</rscale>
<asrwt>0</asrwt>
<pdfrwt beam="1">0</pdfrwt>
<pdfrwt beam="2">0</pdfrwt>
<totfact> 0.21943389E+12</totfact>
</mgrwt>
</event>
<event>
 4    1  0.1750553E+006  0.5000073E+01  0.7546771E-02  0.2122995E+00
         22   -1    0    0    0    0  0.00000000000E+00  0.00000000000E+00  0.19773142426E+02  0.19773142426E+02  0.00000000000E+00 0.  1.
         22   -1    0    0    0    0 -0.00000000000E+00 -0.00000000000E+00 -0.31597435382E+01  0.31597435382E+01  0.00000000000E+00 0. -1.
          4    1    1    2  501    0 -0.26092395976E+01  0.40718170890E+01  0.17187442236E+02  0.17899969170E+02  0.12700000000E+01 0.  1.
         -4    1    1    2    0  501  0.26092395976E+01 -0.40718170890E+01 -0.57404334868E+00  0.50329167935E+01  0.12700000000E+01 0. -1.
<mgrwt>
<rscale>  0 0.50000726E+01</rscale>
<asrwt>0</asrwt>
<pdfrwt beam="1">0</pdfrwt>
<pdfrwt beam="2">0</pdfrwt>
<totfact> 0.18195080E+11</totfact>
</mgrwt>
</event>
<event>
 4    1  0.1750553E+006  0.4131602E+01  0.7546771E-02  0.2252823E+00
         22   -1    0    0    0    0  0.00000000000E+00  0.00000000000E+00  0.24812289361E+02  0.24812289361E+02  0.00000000000E+00 0. -1.
         22   -1    0    0    0    0 -0.00000000000E+00 -0.00000000000E+00 -0.10469825350E+01  0.10469825350E+01  0.00000000000E+00 0.  1.
          4    1    1    2  501    0 -0.24665509647E+01 -0.30615946100E+01  0.19453959207E+02  0.19887852173E+02  0.12700000000E+01 0. -1.
         -4    1    1    2    0  501  0.24665509647E+01  0.30615946100E+01  0.43113476186E+01  0.59714197228E+01  0.12700000000E+01 0.  1.
<mgrwt>
<rscale>  0 0.41316020E+01</rscale>
<asrwt>0</asrwt>
<pdfrwt beam="1">0</pdfrwt>
<pdfrwt beam="2">0</pdfrwt>
<totfact> 0.49055858E+11</totfact>
</mgrwt>
</event>
<event>
 4    1  0.1750553E+006  0.2560952E+01  0.7546771E-02  0.2682253E+00
         22   -1    0    0    0    0  0.00000000000E+00  0.00000000000E+00  0.16080649496E+01  0.16080649496E+01  0.00000000000E+00 0. -1.
         22   -1    0    0    0    0 -0.00000000000E+00 -0.00000000000E+00 -0.45027870011E+01  0.45027870011E+01  0.00000000000E+00 0.  1.
          4    1    1    2  501    0 -0.96072228045E+00  0.20056387060E+01 -0.50943849661E+00  0.26111303110E+01  0.12700000000E+01 0. -1.
         -4    1    1    2    0  501  0.96072228045E+00 -0.20056387060E+01 -0.23852835549E+01  0.34997216398E+01  0.12700000000E+01 0.  1.
<mgrwt>
<rscale>  0 0.25609518E+01</rscale>
<asrwt>0</asrwt>
<pdfrwt beam="1">0</pdfrwt>
<pdfrwt beam="2">0</pdfrwt>
<totfact> 0.23875935E+12</totfact>
</mgrwt>
</event>
<event>
 4    1  0.1750553E+006  0.2316811E+01  0.7546771E-02  0.2795250E+00
         22   -1    0    0    0    0  0.00000000000E+00  0.00000000000E+00  0.14436958295E+01  0.14436958295E+01  0.00000000000E+00 0. -1.
         22   -1    0    0    0    0 -0.00000000000E+00 -0.00000000000E+00 -0.10598335280E+02  0.10598335280E+02  0.00000000000E+00 0. -1.
          4    1    1    2  501    0 -0.85783361739E+00 -0.17374799993E+01  0.27396455840E+00  0.23329534591E+01  0.12700000000E+01 0. -1.
         -4    1    1    2    0  501  0.85783361739E+00  0.17374799993E+01 -0.94286040091E+01  0.97090776505E+01  0.12700000000E+01 0. -1.
<mgrwt>
<rscale>  0 0.23168114E+01</rscale>
<asrwt>0</asrwt>
<pdfrwt beam="1">0</pdfrwt>
<pdfrwt beam="2">0</pdfrwt>
<totfact> 0.97093740E+11</totfact>
</mgrwt>
</event>
<event>
 4    1  0.1750553E+006  0.3787453E+01  0.7546771E-02  0.2319863E+00
         22   -1    0    0    0    0  0.00000000000E+00  0.00000000000E+00  0.10875824289E+01  0.10875824289E+01  0.00000000000E+00 0.  1.
         22   -1    0    0    0    0 -0.00000000000E+00 -0.00000000000E+00 -0.13660915604E+02  0.13660915604E+02  0.00000000000E+00 0. -1.
          4    1    1    2  501    0  0.94470859984E+00  0.34408466798E+01 -0.49169710001E+01  0.62065613691E+01  0.12700000000E+01 0.  1.
         -4    1    1    2    0  501 -0.94470859984E+00 -0.34408466798E+01 -0.76563621754E+01  0.85419366641E+01  0.12700000000E+01 0. -1.
<mgrwt>
<rscale>  0 0.37874530E+01</rscale>
<asrwt>0</asrwt>
<pdfrwt beam="1">0</pdfrwt>
<pdfrwt beam="2">0</pdfrwt>
<totfact> 0.98588870E+11</totfact>
</mgrwt>
</event>
<event>
 4    1  0.1750553E+006  0.3710835E+01  0.7546771E-02  0.2336229E+00
         22   -1    0    0    0    0  0.00000000000E+00  0.00000000000E+00  0.14592196849E+02  0.14592196849E+02  0.00000000000E+00 0. -1.
         22   -1    0    0    0    0 -0.00000000000E+00 -0.00000000000E+00 -0.19622403558E+01  0.19622403558E+01  0.00000000000E+00 0.  1.
          4    1    1    2  501    0 -0.34692944220E+01 -0.34841063603E+00  0.12278499052E+02  0.12826996247E+02  0.12700000000E+01 0. -1.
         -4    1    1    2    0  501  0.34692944220E+01  0.34841063603E+00  0.35145744105E+00  0.37274409573E+01  0.12700000000E+01 0.  1.
<mgrwt>
<rscale>  0 0.37108346E+01</rscale>
<asrwt>0</asrwt>
<pdfrwt beam="1">0</pdfrwt>
<pdfrwt beam="2">0</pdfrwt>
<totfact> 0.46121832E+11</totfact>
</mgrwt>
</event>
<event>
 4    1  0.1750553E+006  0.4081648E+01  0.7546771E-02  0.2261954E+00
         22   -1    0    0    0    0  0.00000000000E+00  0.00000000000E+00  0.12444511011E+02  0.12444511011E+02  0.00000000000E+00 0.  1.
         22   -1    0    0    0    0 -0.00000000000E+00 -0.00000000000E+00 -0.13664696272E+01  0.13664696272E+01  0.00000000000E+00 0. -1.
          4    1    1    2  501    0  0.38707618822E+01 -0.25328386499E+00  0.65228925173E+01  0.76946719916E+01  0.12700000000E+01 0.  1.
         -4    1    1    2    0  501 -0.38707618822E+01  0.25328386499E+00  0.45551488662E+01  0.61163086465E+01  0.12700000000E+01 0. -1.
<mgrwt>
<rscale>  0 0.40816480E+01</rscale>
<asrwt>0</asrwt>
<pdfrwt beam="1">0</pdfrwt>
<pdfrwt beam="2">0</pdfrwt>
<totfact> 0.85066504E+11</totfact>
</mgrwt>
</event>
<event>
 4    1  0.1750553E+006  0.2088417E+01  0.7546771E-02  0.2923498E+00
         22   -1    0    0    0    0  0.00000000000E+00  0.00000000000E+00  0.60889744299E+01  0.60889744299E+01  0.00000000000E+00 0.  1.
         22   -1    0    0    0    0 -0.00000000000E+00 -0.00000000000E+00 -0.71973144178E+00  0.71973144178E+00  0.00000000000E+00 0.  1.
          4    1    1    2  501    0  0.14504095969E+01  0.80305489830E+00  0.24492912161E+01  0.32187750201E+01  0.12700000000E+01 0.  1.
         -4    1    1    2    0  501 -0.14504095969E+01 -0.80305489830E+00  0.29199517720E+01  0.35899308516E+01  0.12700000000E+01 0.  1.
<mgrwt>
<rscale>  0 0.20884169E+01</rscale>
<asrwt>0</asrwt>
<pdfrwt beam="1">0</pdfrwt>
<pdfrwt beam="2">0</pdfrwt>
<totfact> 0.41861012E+12</totfact>
</mgrwt>
</event>
<event>
 4    1  0.1750553E+006  0.2065149E+01  0.7546771E-02  0.2938095E+00
         22   -1    0    0    0    0  0.00000000000E+00  0.00000000000E+00  0.45088146527E+01  0.45088146527E+01  0.00000000000E+00 0.  1.
         22   -1    0    0    0    0 -0.00000000000E+00 -0.00000000000E+00 -0.13126135275E+01  0.13126135275E+01  0.00000000000E+00 0.  1.
          4    1    1    2  501    0 -0.14406459161E+01  0.75926218325E+00  0.31366125611E+01  0.37554198270E+01  0.12700000000E+01 0.  1.
         -4    1    1    2    0  501  0.14406459161E+01 -0.75926218325E+00  0.59588564125E-01  0.20660083532E+01  0.12700000000E+01 0.  1.
<mgrwt>
<rscale>  0 0.20651488E+01</rscale>
<asrwt>0</asrwt>
<pdfrwt beam="1">0</pdfrwt>
<pdfrwt beam="2">0</pdfrwt>
<totfact> 0.30104116E+12</totfact>
</mgrwt>
</event>
<event>
 4    1  0.1750553E+006  0.3646451E+01  0.7546771E-02  0.2350440E+00
         22   -1    0    0    0    0  0.00000000000E+00  0.00000000000E+00  0.16394953056E+01  0.16394953056E+01  0.00000000000E+00 0.  1.
         22   -1    0    0    0    0 -0.00000000000E+00 -0.00000000000E+00 -0.10100320972E+02  0.10100320972E+02  0.00000000000E+00 0. -1.
          4    1    1    2  501    0  0.23896555771E+01 -0.24440237152E+01 -0.16248269414E+01  0.39920756866E+01  0.12700000000E+01 0.  1.
         -4    1    1    2    0  501 -0.23896555771E+01  0.24440237152E+01 -0.68359987250E+01  0.77477405910E+01  0.12700000000E+01 0. -1.
<mgrwt>
<rscale>  0 0.36464511E+01</rscale>
<asrwt>0</asrwt>
<pdfrwt beam="1">0</pdfrwt>
<pdfrwt beam="2">0</pdfrwt>
<totfact> 0.88913780E+11</totfact>
</mgrwt>
</event>
<event>
 4    1  0.1750553E+006  0.2255827E+01  0.7546771E-02  0.2827060E+00
         22   -1    0    0    0    0  0.00000000000E+00  0.00000000000E+00  0.48115090460E+00  0.48115090460E+00  0.00000000000E+00 0.  1.
         22   -1    0    0    0    0 -0.00000000000E+00 -0.00000000000E+00 -0.11649854771E+02  0.11649854771E+02  0.00000000000E+00 0. -1.
          4    1    1    2  501    0  0.15597371961E+01  0.10213100768E+01 -0.37430022182E+01  0.43702196741E+01  0.12700000000E+01 0.  1.
         -4    1    1    2    0  501 -0.15597371961E+01 -0.10213100768E+01 -0.74257016478E+01  0.77607860012E+01  0.12700000000E+01 0. -1.
<mgrwt>
<rscale>  0 0.22558268E+01</rscale>
<asrwt>0</asrwt>
<pdfrwt beam="1">0</pdfrwt>
<pdfrwt beam="2">0</pdfrwt>
<totfact> 0.30241205E+12</totfact>
</mgrwt>
</event>
<event>
 4    1  0.1750553E+006  0.2331229E+01  0.7546771E-02  0.2787960E+00
         22   -1    0    0    0    0  0.00000000000E+00  0.00000000000E+00  0.13888829637E+01  0.13888829637E+01  0.00000000000E+00 0.  1.
         22   -1    0    0    0    0 -0.00000000000E+00 -0.00000000000E+00 -0.70611487763E+01  0.70611487763E+01  0.00000000000E+00 0.  1.
          4    1    1    2  501    0  0.19409104881E+01  0.23365122619E+00 -0.15010734883E-01  0.23312768477E+01  0.12700000000E+01 0.  1.
         -4    1    1    2    0  501 -0.19409104881E+01 -0.23365122619E+00 -0.56572550777E+01  0.61187548923E+01  0.12700000000E+01 0.  1.
<mgrwt>
<rscale>  0 0.23312285E+01</rscale>
<asrwt>0</asrwt>
<pdfrwt beam="1">0</pdfrwt>
<pdfrwt beam="2">0</pdfrwt>
<totfact> 0.16557222E+12</totfact>
</mgrwt>
</event>
<event>
 4    1  0.1750553E+006  0.2070832E+01  0.7546771E-02  0.2934500E+00
         22   -1    0    0    0    0  0.00000000000E+00  0.00000000000E+00  0.75787063300E+00  0.75787063300E+00  0.00000000000E+00 0. -1.
         22   -1    0    0    0    0 -0.00000000000E+00 -0.00000000000E+00 -0.56861689383E+01  0.56861689383E+01  0.00000000000E+00 0. -1.
          4    1    1    2  501    0 -0.90660186052E+00  0.13614404803E+01 -0.26892488350E+01  0.33941724192E+01  0.12700000000E+01 0. -1.
         -4    1    1    2    0  501  0.90660186052E+00 -0.13614404803E+01 -0.22390494703E+01  0.30498671521E+01  0.12700000000E+01 0. -1.
<mgrwt>
<rscale>  0 0.20708325E+01</rscale>
<asrwt>0</asrwt>
<pdfrwt beam="1">0</pdfrwt>
<pdfrwt beam="2">0</pdfrwt>
<totfact> 0.42824632E+12</totfact>
</mgrwt>
</event>
<event>
 4    1  0.1750553E+006  0.2001301E+01  0.7546771E-02  0.2979851E+00
         22   -1    0    0    0    0  0.00000000000E+00  0.00000000000E+00  0.22170903615E+01  0.22170903615E+01  0.00000000000E+00 0. -1.
         22   -1    0    0    0    0 -0.00000000000E+00 -0.00000000000E+00 -0.18104770371E+01  0.18104770371E+01  0.00000000000E+00 0.  1.
          4    1    1    2  501    0 -0.19733669696E+00  0.15340683581E+01  0.29750930831E+00  0.20232941674E+01  0.12700000000E+01 0.  1.
         -4    1    1    2    0  501  0.19733669696E+00 -0.15340683581E+01  0.10910401606E+00  0.20042732312E+01  0.12700000000E+01 0. -1.
<mgrwt>
<rscale>  0 0.20013015E+01</rscale>
<asrwt>0</asrwt>
<pdfrwt beam="1">0</pdfrwt>
<pdfrwt beam="2">0</pdfrwt>
<totfact> 0.47696704E+12</totfact>
</mgrwt>
</event>
<event>
 4    1  0.1750553E+006  0.2269029E+01  0.7546771E-02  0.2820036E+00
         22   -1    0    0    0    0  0.00000000000E+00  0.00000000000E+00  0.86497562058E+01  0.86497562058E+01  0.00000000000E+00 0. -1.
         22   -1    0    0    0    0 -0.00000000000E+00 -0.00000000000E+00 -0.56093630157E+01  0.56093630157E+01  0.00000000000E+00 0.  1.
          4    1    1    2  501    0 -0.18216959254E+01 -0.46585036713E+00  0.82608867730E+01  0.85668397257E+01  0.12700000000E+01 0. -1.
         -4    1    1    2    0  501  0.18216959254E+01  0.46585036713E+00 -0.52204935830E+01  0.56922794959E+01  0.12700000000E+01 0.  1.
<mgrwt>
<rscale>  0 0.22690290E+01</rscale>
<asrwt>0</asrwt>
<pdfrwt beam="1">0</pdfrwt>
<pdfrwt beam="2">0</pdfrwt>
<totfact> 0.25452856E+11</totfact>
</mgrwt>
</event>
<event>
 4    1  0.1750553E+006  0.3138864E+01  0.7546771E-02  0.2480039E+00
         22   -1    0    0    0    0  0.00000000000E+00  0.00000000000E+00  0.14135354889E+01  0.14135354889E+01  0.00000000000E+00 0.  1.
         22   -1    0    0    0    0 -0.00000000000E+00 -0.00000000000E+00 -0.70060944536E+01  0.70060944536E+01  0.00000000000E+00 0. -1.
          4    1    1    2  501    0 -0.17113168087E+01  0.23045530061E+01 -0.24944912750E+01  0.40093586144E+01  0.12700000000E+01 0. -1.
         -4    1    1    2    0  501  0.17113168087E+01 -0.23045530061E+01 -0.30980676896E+01  0.44102713281E+01  0.12700000000E+01 0.  1.
<mgrwt>
<rscale>  0 0.31388644E+01</rscale>
<asrwt>0</asrwt>
<pdfrwt beam="1">0</pdfrwt>
<pdfrwt beam="2">0</pdfrwt>
<totfact> 0.16379171E+12</totfact>
</mgrwt>
</event>
<event>
 4    1  0.1750553E+006  0.2042135E+01  0.7546771E-02  0.2952852E+00
         22   -1    0    0    0    0  0.00000000000E+00  0.00000000000E+00  0.16346211506E+01  0.16346211506E+01  0.00000000000E+00 0. -1.
         22   -1    0    0    0    0 -0.00000000000E+00 -0.00000000000E+00 -0.29393899083E+01  0.29393899083E+01  0.00000000000E+00 0.  1.
          4    1    1    2  501    0 -0.31406407359E+00  0.15680496674E+01  0.17868369883E+00  0.20499375273E+01  0.12700000000E+01 0. -1.
         -4    1    1    2    0  501  0.31406407359E+00 -0.15680496674E+01 -0.14834524565E+01  0.25240735315E+01  0.12700000000E+01 0.  1.
<mgrwt>
<rscale>  0 0.20421352E+01</rscale>
<asrwt>0</asrwt>
<pdfrwt beam="1">0</pdfrwt>
<pdfrwt beam="2">0</pdfrwt>
<totfact> 0.38651237E+12</totfact>
</mgrwt>
</event>
<event>
 4    1  0.1750553E+006  0.2462549E+01  0.7546771E-02  0.2725275E+00
         22   -1    0    0    0    0  0.00000000000E+00  0.00000000000E+00  0.53668911757E+01  0.53668911757E+01  0.00000000000E+00 0. -1.
         22   -1    0    0    0    0 -0.00000000000E+00 -0.00000000000E+00 -0.13706406908E+01  0.13706406908E+01  0.00000000000E+00 0.  1.
          4    1    1    2  501    0 -0.19876456222E+01  0.70746803253E+00  0.34099073598E+01  0.42061400760E+01  0.12700000000E+01 0. -1.
         -4    1    1    2    0  501  0.19876456222E+01 -0.70746803253E+00  0.58634312516E+00  0.25313917905E+01  0.12700000000E+01 0.  1.
<mgrwt>
<rscale>  0 0.24625487E+01</rscale>
<asrwt>0</asrwt>
<pdfrwt beam="1">0</pdfrwt>
<pdfrwt beam="2">0</pdfrwt>
<totfact> 0.23310126E+12</totfact>
</mgrwt>
</event>
<event>
 4    1  0.1750553E+006  0.2385747E+01  0.7546771E-02  0.2761149E+00
         22   -1    0    0    0    0  0.00000000000E+00  0.00000000000E+00  0.97970937473E+02  0.97970937473E+02  0.00000000000E+00 0. -1.
         22   -1    0    0    0    0 -0.00000000000E+00 -0.00000000000E+00 -0.91039035435E-01  0.91039035435E-01  0.00000000000E+00 0. -1.
          4    1    1    2  501    0 -0.20180270518E+01  0.80354317743E-01  0.78433963898E+02  0.78470239472E+02  0.12700000000E+01 0. -1.
         -4    1    1    2    0  501  0.20180270518E+01 -0.80354317743E-01  0.19445934539E+02  0.19591737037E+02  0.12700000000E+01 0. -1.
<mgrwt>
<rscale>  0 0.23857473E+01</rscale>
<asrwt>0</asrwt>
<pdfrwt beam="1">0</pdfrwt>
<pdfrwt beam="2">0</pdfrwt>
<totfact> 0.12377450E+12</totfact>
</mgrwt>
</event>
<event>
 4    1  0.1750553E+006  0.2259684E+01  0.7546771E-02  0.2825000E+00
         22   -1    0    0    0    0  0.00000000000E+00  0.00000000000E+00  0.99279633436E+01  0.99279633436E+01  0.00000000000E+00 0.  1.
         22   -1    0    0    0    0 -0.00000000000E+00 -0.00000000000E+00 -0.52308049314E+00  0.52308049314E+00  0.00000000000E+00 0. -1.
          4    1    1    2  501    0  0.18164920968E+01  0.44003245328E+00  0.40262731711E+01  0.46170388504E+01  0.12700000000E+01 0. -1.
         -4    1    1    2    0  501 -0.18164920968E+01 -0.44003245328E+00  0.53786096794E+01  0.58340049864E+01  0.12700000000E+01 0.  1.
<mgrwt>
<rscale>  0 0.22596841E+01</rscale>
<asrwt>0</asrwt>
<pdfrwt beam="1">0</pdfrwt>
<pdfrwt beam="2">0</pdfrwt>
<totfact> 0.33416393E+12</totfact>
</mgrwt>
</event>
<event>
 4    1  0.1750553E+006  0.2285543E+01  0.7546771E-02  0.2811358E+00
         22   -1    0    0    0    0  0.00000000000E+00  0.00000000000E+00  0.20285792572E+02  0.20285792572E+02  0.00000000000E+00 0. -1.
         22   -1    0    0    0    0 -0.00000000000E+00 -0.00000000000E+00 -0.41687730626E+00  0.41687730626E+00  0.00000000000E+00 0. -1.
          4    1    1    2  501    0 -0.13750382717E+01  0.13115170297E+01  0.16334719043E+02  0.16493839862E+02  0.12700000000E+01 0. -1.
         -4    1    1    2    0  501  0.13750382717E+01 -0.13115170297E+01  0.35341962225E+01  0.42088300164E+01  0.12700000000E+01 0. -1.
<mgrwt>
<rscale>  0 0.22855431E+01</rscale>
<asrwt>0</asrwt>
<pdfrwt beam="1">0</pdfrwt>
<pdfrwt beam="2">0</pdfrwt>
<totfact> 0.17947212E+12</totfact>
</mgrwt>
</event>
<event>
 4    1  0.1750553E+006  0.2696661E+01  0.7546771E-02  0.2627704E+00
         22   -1    0    0    0    0  0.00000000000E+00  0.00000000000E+00  0.56485426519E+00  0.56485426519E+00  0.00000000000E+00 0.  1.
         22   -1    0    0    0    0 -0.00000000000E+00 -0.00000000000E+00 -0.14806163159E+02  0.14806163159E+02  0.00000000000E+00 0. -1.
          4    1    1    2  501    0  0.17841327654E+01 -0.15735158053E+01 -0.43443715293E+01  0.51132715260E+01  0.12700000000E+01 0.  1.
         -4    1    1    2    0  501 -0.17841327654E+01  0.15735158053E+01 -0.98969373648E+01  0.10257745898E+02  0.12700000000E+01 0. -1.
<mgrwt>
<rscale>  0 0.26966612E+01</rscale>
<asrwt>0</asrwt>
<pdfrwt beam="1">0</pdfrwt>
<pdfrwt beam="2">0</pdfrwt>
<totfact> 0.18814174E+12</totfact>
</mgrwt>
</event>
<event>
 4    1  0.1750553E+006  0.2099544E+01  0.7546771E-02  0.2916628E+00
         22   -1    0    0    0    0  0.00000000000E+00  0.00000000000E+00  0.34406910602E+01  0.34406910602E+01  0.00000000000E+00 0. -1.
         22   -1    0    0    0    0 -0.00000000000E+00 -0.00000000000E+00 -0.13499032082E+01  0.13499032082E+01  0.00000000000E+00 0. -1.
          4    1    1    2  501    0  0.12566512392E+01  0.11027296590E+01  0.50487057618E+00  0.21593932797E+01  0.12700000000E+01 0. -1.
         -4    1    1    2    0  501 -0.12566512392E+01 -0.11027296590E+01  0.15859172758E+01  0.26312009888E+01  0.12700000000E+01 0. -1.
<mgrwt>
<rscale>  0 0.20995440E+01</rscale>
<asrwt>0</asrwt>
<pdfrwt beam="1">0</pdfrwt>
<pdfrwt beam="2">0</pdfrwt>
<totfact> 0.40066545E+12</totfact>
</mgrwt>
</event>
<event>
 4    1  0.1750553E+006  0.2195033E+01  0.7546771E-02  0.2860446E+00
         22   -1    0    0    0    0  0.00000000000E+00  0.00000000000E+00  0.20637004384E+00  0.20637004384E+00  0.00000000000E+00 0.  1.
         22   -1    0    0    0    0 -0.00000000000E+00 -0.00000000000E+00 -0.23349797679E+02  0.23349797679E+02  0.00000000000E+00 0. -1.
          4    1    1    2  501    0  0.12025928463E+01 -0.13262881440E+01 -0.11695117365E+02  0.11899325190E+02  0.12700000000E+01 0. -1.
         -4    1    1    2    0  501 -0.12025928463E+01  0.13262881440E+01 -0.11448310270E+02  0.11656842533E+02  0.12700000000E+01 0.  1.
<mgrwt>
<rscale>  0 0.21950330E+01</rscale>
<asrwt>0</asrwt>
<pdfrwt beam="1">0</pdfrwt>
<pdfrwt beam="2">0</pdfrwt>
<totfact> 0.33097157E+12</totfact>
</mgrwt>
</event>
<event>
 4    1  0.1750553E+006  0.3559735E+01  0.7546771E-02  0.2370282E+00
         22   -1    0    0    0    0  0.00000000000E+00  0.00000000000E+00  0.10590146434E+01  0.10590146434E+01  0.00000000000E+00 0.  1.
         22   -1    0    0    0    0 -0.00000000000E+00 -0.00000000000E+00 -0.12012125736E+02  0.12012125736E+02  0.00000000000E+00 0. -1.
          4    1    1    2  501    0  0.61086593463E+00  0.32688925050E+01 -0.50696877551E+01  0.61946306858E+01  0.12700000000E+01 0.  1.
         -4    1    1    2    0  501 -0.61086593463E+00 -0.32688925050E+01 -0.58834233376E+01  0.68765096938E+01  0.12700000000E+01 0. -1.
<mgrwt>
<rscale>  0 0.35597353E+01</rscale>
<asrwt>0</asrwt>
<pdfrwt beam="1">0</pdfrwt>
<pdfrwt beam="2">0</pdfrwt>
<totfact> 0.11894213E+12</totfact>
</mgrwt>
</event>
<event>
 4    1  0.1750553E+006  0.1016911E+02  0.7546771E-02  0.1771836E+00
         22   -1    0    0    0    0  0.00000000000E+00  0.00000000000E+00  0.18651665225E+01  0.18651665225E+01  0.00000000000E+00 0.  1.
         22   -1    0    0    0    0 -0.00000000000E+00 -0.00000000000E+00 -0.60722338316E+02  0.60722338316E+02  0.00000000000E+00 0. -1.
          4    1    1    2  501    0 -0.55645785880E+01 -0.84162502361E+01 -0.20201446695E+02  0.22616568074E+02  0.12700000000E+01 0.  1.
         -4    1    1    2    0  501  0.55645785880E+01  0.84162502361E+01 -0.38655725099E+02  0.39970936764E+02  0.12700000000E+01 0. -1.
<mgrwt>
<rscale>  0 0.10169105E+02</rscale>
<asrwt>0</asrwt>
<pdfrwt beam="1">0</pdfrwt>
<pdfrwt beam="2">0</pdfrwt>
<totfact> 0.79147608E+10</totfact>
</mgrwt>
</event>
<event>
 4    1  0.1750553E+006  0.2292184E+01  0.7546771E-02  0.2807902E+00
         22   -1    0    0    0    0  0.00000000000E+00  0.00000000000E+00  0.24066469833E+02  0.24066469833E+02  0.00000000000E+00 0. -1.
         22   -1    0    0    0    0 -0.00000000000E+00 -0.00000000000E+00 -0.42093167014E+00  0.42093167014E+00  0.00000000000E+00 0.  1.
          4    1    1    2  501    0 -0.13594308268E+01  0.13390876064E+01  0.20317367840E+02  0.20446259896E+02  0.12700000000E+01 0. -1.
         -4    1    1    2    0  501  0.13594308268E+01 -0.13390876064E+01  0.33281703225E+01  0.40411416067E+01  0.12700000000E+01 0.  1.
<mgrwt>
<rscale>  0 0.22921841E+01</rscale>
<asrwt>0</asrwt>
<pdfrwt beam="1">0</pdfrwt>
<pdfrwt beam="2">0</pdfrwt>
<totfact> 0.14330010E+12</totfact>
</mgrwt>
</event>
<event>
 4    1  0.1750553E+006  0.2912402E+01  0.7546771E-02  0.2550608E+00
         22   -1    0    0    0    0  0.00000000000E+00  0.00000000000E+00  0.92872393248E+00  0.92872393248E+00  0.00000000000E+00 0. -1.
         22   -1    0    0    0    0 -0.00000000000E+00 -0.00000000000E+00 -0.11294164586E+02  0.11294164586E+02  0.00000000000E+00 0.  1.
          4    1    1    2  501    0 -0.20397048983E+01  0.16458393856E+01 -0.78560687294E+01  0.83785380131E+01  0.12700000000E+01 0.  1.
         -4    1    1    2    0  501  0.20397048983E+01 -0.16458393856E+01 -0.25093719242E+01  0.38443505055E+01  0.12700000000E+01 0. -1.
<mgrwt>
<rscale>  0 0.29124016E+01</rscale>
<asrwt>0</asrwt>
<pdfrwt beam="1">0</pdfrwt>
<pdfrwt beam="2">0</pdfrwt>
<totfact> 0.14894644E+12</totfact>
</mgrwt>
</event>
<event>
 4    1  0.1750553E+006  0.2305543E+01  0.7546771E-02  0.2801007E+00
         22   -1    0    0    0    0  0.00000000000E+00  0.00000000000E+00  0.37258553664E+01  0.37258553664E+01  0.00000000000E+00 0. -1.
         22   -1    0    0    0    0 -0.00000000000E+00 -0.00000000000E+00 -0.16198767313E+01  0.16198767313E+01  0.00000000000E+00 0. -1.
          4    1    1    2  501    0  0.32943546427E+00 -0.18958108998E+01  0.19761115638E+01  0.30365348023E+01  0.12700000000E+01 0. -1.
         -4    1    1    2    0  501 -0.32943546427E+00  0.18958108998E+01  0.12986707124E+00  0.23091972954E+01  0.12700000000E+01 0. -1.
<mgrwt>
<rscale>  0 0.23055426E+01</rscale>
<asrwt>0</asrwt>
<pdfrwt beam="1">0</pdfrwt>
<pdfrwt beam="2">0</pdfrwt>
<totfact> 0.29589883E+12</totfact>
</mgrwt>
</event>
<event>
 4    1  0.1750553E+006  0.2379475E+01  0.7546771E-02  0.2764174E+00
         22   -1    0    0    0    0  0.00000000000E+00  0.00000000000E+00  0.58786720556E+00  0.58786720556E+00  0.00000000000E+00 0.  1.
         22   -1    0    0    0    0 -0.00000000000E+00 -0.00000000000E+00 -0.32594692666E+02  0.32594692666E+02  0.00000000000E+00 0. -1.
          4    1    1    2  501    0 -0.13360529058E+01  0.15046469918E+01 -0.20774611212E+01  0.31587568199E+01  0.12700000000E+01 0.  1.
         -4    1    1    2    0  501  0.13360529058E+01 -0.15046469918E+01 -0.29929364339E+02  0.30023803052E+02  0.12700000000E+01 0. -1.
<mgrwt>
<rscale>  0 0.23794747E+01</rscale>
<asrwt>0</asrwt>
<pdfrwt beam="1">0</pdfrwt>
<pdfrwt beam="2">0</pdfrwt>
<totfact> 0.66866569E+11</totfact>
</mgrwt>
</event>
<event>
 4    1  0.1750553E+006  0.3106141E+01  0.7546771E-02  0.2489667E+00
         22   -1    0    0    0    0  0.00000000000E+00  0.00000000000E+00  0.11162337768E+02  0.11162337768E+02  0.00000000000E+00 0.  1.
         22   -1    0    0    0    0 -0.00000000000E+00 -0.00000000000E+00 -0.12587417598E+01  0.12587417598E+01  0.00000000000E+00 0. -1.
          4    1    1    2  501    0 -0.28311235848E+01  0.14123820169E+00  0.84281823620E+01  0.89823363836E+01  0.12700000000E+01 0.  1.
         -4    1    1    2    0  501  0.28311235848E+01 -0.14123820169E+00  0.14754136458E+01  0.34387431437E+01  0.12700000000E+01 0. -1.
<mgrwt>
<rscale>  0 0.31061405E+01</rscale>
<asrwt>0</asrwt>
<pdfrwt beam="1">0</pdfrwt>
<pdfrwt beam="2">0</pdfrwt>
<totfact> 0.10671474E+12</totfact>
</mgrwt>
</event>
<event>
 4    1  0.1750553E+006  0.2083149E+01  0.7546771E-02  0.2926775E+00
         22   -1    0    0    0    0  0.00000000000E+00  0.00000000000E+00  0.29704291743E+02  0.29704291743E+02  0.00000000000E+00 0. -1.
         22   -1    0    0    0    0 -0.00000000000E+00 -0.00000000000E+00 -0.51871505032E+00  0.51871505032E+00  0.00000000000E+00 0.  1.
          4    1    1    2  501    0 -0.91954170164E+00  0.13715149831E+01  0.27400722028E+02  0.27479793993E+02  0.12700000000E+01 0. -1.
         -4    1    1    2    0  501  0.91954170164E+00 -0.13715149831E+01  0.17848546651E+01  0.27432127999E+01  0.12700000000E+01 0.  1.
<mgrwt>
<rscale>  0 0.20831491E+01</rscale>
<asrwt>0</asrwt>
<pdfrwt beam="1">0</pdfrwt>
<pdfrwt beam="2">0</pdfrwt>
<totfact> 0.86726553E+11</totfact>
</mgrwt>
</event>
<event>
 4    1  0.1750553E+006  0.6575042E+01  0.7546771E-02  0.1971657E+00
         22   -1    0    0    0    0  0.00000000000E+00  0.00000000000E+00  0.75687993520E+01  0.75687993520E+01  0.00000000000E+00 0.  1.
         22   -1    0    0    0    0 -0.00000000000E+00 -0.00000000000E+00 -0.86674644703E+01  0.86674644703E+01  0.00000000000E+00 0. -1.
          4    1    1    2  501    0 -0.64467561683E+01  0.24003053019E+00  0.41913451767E+01  0.77973427615E+01  0.12700000000E+01 0.  1.
         -4    1    1    2    0  501  0.64467561683E+01 -0.24003053019E+00 -0.52900102950E+01  0.84389210608E+01  0.12700000000E+01 0. -1.
<mgrwt>
<rscale>  0 0.65750422E+01</rscale>
<asrwt>0</asrwt>
<pdfrwt beam="1">0</pdfrwt>
<pdfrwt beam="2">0</pdfrwt>
<totfact> 0.17758536E+11</totfact>
</mgrwt>
</event>
<event>
 4    1  0.1750553E+006  0.3741865E+01  0.7546771E-02  0.2329531E+00
         22   -1    0    0    0    0  0.00000000000E+00  0.00000000000E+00  0.18521927584E+01  0.18521927584E+01  0.00000000000E+00 0. -1.
         22   -1    0    0    0    0 -0.00000000000E+00 -0.00000000000E+00 -0.13630528804E+02  0.13630528804E+02  0.00000000000E+00 0.  1.
          4    1    1    2  501    0 -0.33173293303E+01  0.11764264234E+01 -0.72269700574E+00  0.38110161345E+01  0.12700000000E+01 0. -1.
         -4    1    1    2    0  501  0.33173293303E+01 -0.11764264234E+01 -0.11055639040E+02  0.11671705428E+02  0.12700000000E+01 0.  1.
<mgrwt>
<rscale>  0 0.37418649E+01</rscale>
<asrwt>0</asrwt>
<pdfrwt beam="1">0</pdfrwt>
<pdfrwt beam="2">0</pdfrwt>
<totfact> 0.53608049E+11</totfact>
</mgrwt>
</event>
<event>
 4    1  0.1750553E+006  0.4443897E+01  0.7546771E-02  0.2199705E+00
         22   -1    0    0    0    0  0.00000000000E+00  0.00000000000E+00  0.62072805484E+01  0.62072805484E+01  0.00000000000E+00 0. -1.
         22   -1    0    0    0    0 -0.00000000000E+00 -0.00000000000E+00 -0.47983144703E+01  0.47983144703E+01  0.00000000000E+00 0.  1.
          4    1    1    2  501    0  0.26425175038E+01 -0.33395236893E+01  0.38987748725E+01  0.59117394002E+01  0.12700000000E+01 0. -1.
         -4    1    1    2    0  501 -0.26425175038E+01  0.33395236893E+01 -0.24898087944E+01  0.50938556185E+01  0.12700000000E+01 0.  1.
<mgrwt>
<rscale>  0 0.44438966E+01</rscale>
<asrwt>0</asrwt>
<pdfrwt beam="1">0</pdfrwt>
<pdfrwt beam="2">0</pdfrwt>
<totfact> 0.45581448E+11</totfact>
</mgrwt>
</event>
<event>
 4    1  0.1750553E+006  0.2252009E+01  0.7546771E-02  0.2829106E+00
         22   -1    0    0    0    0  0.00000000000E+00  0.00000000000E+00  0.78637775127E+00  0.78637775127E+00  0.00000000000E+00 0. -1.
         22   -1    0    0    0    0 -0.00000000000E+00 -0.00000000000E+00 -0.10915454009E+02  0.10915454009E+02  0.00000000000E+00 0.  1.
          4    1    1    2  501    0 -0.85175269268E+00 -0.16532275408E+01 -0.13219468487E+01  0.26113382435E+01  0.12700000000E+01 0. -1.
         -4    1    1    2    0  501  0.85175269268E+00  0.16532275408E+01 -0.88071294086E+01  0.90904935163E+01  0.12700000000E+01 0.  1.
<mgrwt>
<rscale>  0 0.22520089E+01</rscale>
<asrwt>0</asrwt>
<pdfrwt beam="1">0</pdfrwt>
<pdfrwt beam="2">0</pdfrwt>
<totfact> 0.18763078E+12</totfact>
</mgrwt>
</event>
<event>
 4    1  0.1750553E+006  0.2083249E+01  0.7546771E-02  0.2926712E+00
         22   -1    0    0    0    0  0.00000000000E+00  0.00000000000E+00  0.43960488920E+01  0.43960488920E+01  0.00000000000E+00 0.  1.
         22   -1    0    0    0    0 -0.00000000000E+00 -0.00000000000E+00 -0.18019146767E+01  0.18019146767E+01  0.00000000000E+00 0. -1.
          4    1    1    2  501    0 -0.15606910174E+01  0.53969467957E+00  0.33808177620E+01  0.39711277414E+01  0.12700000000E+01 0.  1.
         -4    1    1    2    0  501  0.15606910174E+01 -0.53969467957E+00 -0.78668354677E+00  0.22268358273E+01  0.12700000000E+01 0. -1.
<mgrwt>
<rscale>  0 0.20832491E+01</rscale>
<asrwt>0</asrwt>
<pdfrwt beam="1">0</pdfrwt>
<pdfrwt beam="2">0</pdfrwt>
<totfact> 0.21537905E+12</totfact>
</mgrwt>
</event>
<event>
 4    1  0.1750553E+006  0.2650115E+01  0.7546771E-02  0.2645834E+00
         22   -1    0    0    0    0  0.00000000000E+00  0.00000000000E+00  0.74317819603E+01  0.74317819603E+01  0.00000000000E+00 0. -1.
         22   -1    0    0    0    0 -0.00000000000E+00 -0.00000000000E+00 -0.16649012913E+01  0.16649012913E+01  0.00000000000E+00 0. -1.
          4    1    1    2  501    0  0.21237541126E+00  0.23162695585E+01  0.58742742967E+01  0.64443934156E+01  0.12700000000E+01 0. -1.
         -4    1    1    2    0  501 -0.21237541126E+00 -0.23162695585E+01 -0.10739362776E+00  0.26522898360E+01  0.12700000000E+01 0. -1.
<mgrwt>
<rscale>  0 0.26501147E+01</rscale>
<asrwt>0</asrwt>
<pdfrwt beam="1">0</pdfrwt>
<pdfrwt beam="2">0</pdfrwt>
<totfact> 0.12641207E+12</totfact>
</mgrwt>
</event>
<event>
 4    1  0.1750553E+006  0.3307698E+01  0.7546771E-02  0.2433062E+00
         22   -1    0    0    0    0  0.00000000000E+00  0.00000000000E+00  0.31217663827E+01  0.31217663827E+01  0.00000000000E+00 0.  1.
         22   -1    0    0    0    0 -0.00000000000E+00 -0.00000000000E+00 -0.61685647419E+01  0.61685647419E+01  0.00000000000E+00 0. -1.
          4    1    1    2  501    0  0.30421673045E+01 -0.27052094626E+00  0.15291662944E+01  0.36440654559E+01  0.12700000000E+01 0.  1.
         -4    1    1    2    0  501 -0.30421673045E+01  0.27052094626E+00 -0.45759646536E+01  0.56462656687E+01  0.12700000000E+01 0. -1.
<mgrwt>
<rscale>  0 0.33076976E+01</rscale>
<asrwt>0</asrwt>
<pdfrwt beam="1">0</pdfrwt>
<pdfrwt beam="2">0</pdfrwt>
<totfact> 0.76125900E+11</totfact>
</mgrwt>
</event>
<event>
 4    1  0.1750553E+006  0.2116615E+01  0.7546771E-02  0.2906225E+00
         22   -1    0    0    0    0  0.00000000000E+00  0.00000000000E+00  0.50968403480E+00  0.50968403480E+00  0.00000000000E+00 0. -1.
         22   -1    0    0    0    0 -0.00000000000E+00 -0.00000000000E+00 -0.13743778133E+02  0.13743778133E+02  0.00000000000E+00 0.  1.
          4    1    1    2  501    0  0.16545154511E+01  0.36018896694E+00 -0.23383534565E+01  0.31540377863E+01  0.12700000000E+01 0. -1.
         -4    1    1    2    0  501 -0.16545154511E+01 -0.36018896694E+00 -0.10895740642E+02  0.11099424382E+02  0.12700000000E+01 0.  1.
<mgrwt>
<rscale>  0 0.21166146E+01</rscale>
<asrwt>0</asrwt>
<pdfrwt beam="1">0</pdfrwt>
<pdfrwt beam="2">0</pdfrwt>
<totfact> 0.23153589E+12</totfact>
</mgrwt>
</event>
<event>
 4    1  0.1750553E+006  0.2231653E+01  0.7546771E-02  0.2840128E+00
         22   -1    0    0    0    0  0.00000000000E+00  0.00000000000E+00  0.12357532034E+02  0.12357532034E+02  0.00000000000E+00 0.  1.
         22   -1    0    0    0    0 -0.00000000000E+00 -0.00000000000E+00 -0.47824796441E+00  0.47824796441E+00  0.00000000000E+00 0.  1.
          4    1    1    2  501    0 -0.32548546123E+00  0.18059440119E+01  0.84851174497E+01  0.87736818209E+01  0.12700000000E+01 0.  1.
         -4    1    1    2    0  501  0.32548546123E+00 -0.18059440119E+01  0.33941666195E+01  0.40620981771E+01  0.12700000000E+01 0.  1.
<mgrwt>
<rscale>  0 0.22316529E+01</rscale>
<asrwt>0</asrwt>
<pdfrwt beam="1">0</pdfrwt>
<pdfrwt beam="2">0</pdfrwt>
<totfact> 0.28335747E+12</totfact>
</mgrwt>
</event>
<event>
 4    1  0.1750553E+006  0.2217016E+01  0.7546771E-02  0.2848172E+00
         22   -1    0    0    0    0  0.00000000000E+00  0.00000000000E+00  0.23894669383E+00  0.23894669383E+00  0.00000000000E+00 0.  1.
         22   -1    0    0    0    0 -0.00000000000E+00 -0.00000000000E+00 -0.20809333816E+02  0.20809333816E+02  0.00000000000E+00 0. -1.
          4    1    1    2  501    0 -0.18091572726E+01  0.17091331068E+00 -0.11413568909E+02  0.11626896260E+02  0.12700000000E+01 0. -1.
         -4    1    1    2    0  501  0.18091572726E+01 -0.17091331068E+00 -0.91568182137E+01  0.94213842505E+01  0.12700000000E+01 0.  1.
<mgrwt>
<rscale>  0 0.22170163E+01</rscale>
<asrwt>0</asrwt>
<pdfrwt beam="1">0</pdfrwt>
<pdfrwt beam="2">0</pdfrwt>
<totfact> 0.32462172E+12</totfact>
</mgrwt>
</event>
<event>
 4    1  0.1750553E+006  0.3144576E+01  0.7546771E-02  0.2478377E+00
         22   -1    0    0    0    0  0.00000000000E+00  0.00000000000E+00  0.71435491450E-01  0.71435491450E-01  0.00000000000E+00 0. -1.
         22   -1    0    0    0    0 -0.00000000000E+00 -0.00000000000E+00 -0.14780462354E+03  0.14780462354E+03  0.00000000000E+00 0.  1.
          4    1    1    2  501    0  0.20247246219E+01  0.20435141099E+01 -0.92493828717E+02  0.92547267439E+02  0.12700000000E+01 0.  1.
         -4    1    1    2    0  501 -0.20247246219E+01 -0.20435141099E+01 -0.55239359336E+02  0.55328791597E+02  0.12700000000E+01 0. -1.
<mgrwt>
<rscale>  0 0.31445762E+01</rscale>
<asrwt>0</asrwt>
<pdfrwt beam="1">0</pdfrwt>
<pdfrwt beam="2">0</pdfrwt>
<totfact> 0.89453845E+11</totfact>
</mgrwt>
</event>
<event>
 4    1  0.1750553E+006  0.3019090E+01  0.7546771E-02  0.2516182E+00
         22   -1    0    0    0    0  0.00000000000E+00  0.00000000000E+00  0.17971555806E+02  0.17971555806E+02  0.00000000000E+00 0.  1.
         22   -1    0    0    0    0 -0.00000000000E+00 -0.00000000000E+00 -0.62914416625E+00  0.62914416625E+00  0.00000000000E+00 0. -1.
          4    1    1    2  501    0 -0.23074969342E+01  0.14756236350E+01  0.12765990442E+02  0.13118133221E+02  0.12700000000E+01 0. -1.
         -4    1    1    2    0  501  0.23074969342E+01 -0.14756236350E+01  0.45764211976E+01  0.54825667521E+01  0.12700000000E+01 0.  1.
<mgrwt>
<rscale>  0 0.30190905E+01</rscale>
<asrwt>0</asrwt>
<pdfrwt beam="1">0</pdfrwt>
<pdfrwt beam="2">0</pdfrwt>
<totfact> 0.13108463E+12</totfact>
</mgrwt>
</event>
<event>
 4    1  0.1750553E+006  0.2424745E+01  0.7546771E-02  0.2742667E+00
         22   -1    0    0    0    0  0.00000000000E+00  0.00000000000E+00  0.29219725488E+01  0.29219725488E+01  0.00000000000E+00 0.  1.
         22   -1    0    0    0    0 -0.00000000000E+00 -0.00000000000E+00 -0.21361350189E+01  0.21361350189E+01  0.00000000000E+00 0. -1.
          4    1    1    2  501    0 -0.17689018958E+01 -0.10665244697E+01 -0.21642658970E+00  0.24343846923E+01  0.12700000000E+01 0.  1.
         -4    1    1    2    0  501  0.17689018958E+01  0.10665244697E+01  0.10022641196E+01  0.26237228754E+01  0.12700000000E+01 0. -1.
<mgrwt>
<rscale>  0 0.24247450E+01</rscale>
<asrwt>0</asrwt>
<pdfrwt beam="1">0</pdfrwt>
<pdfrwt beam="2">0</pdfrwt>
<totfact> 0.28568637E+12</totfact>
</mgrwt>
</event>
<event>
 4    1  0.1750553E+006  0.3119303E+01  0.7546771E-02  0.2485773E+00
         22   -1    0    0    0    0  0.00000000000E+00  0.00000000000E+00  0.11485832459E+01  0.11485832459E+01  0.00000000000E+00 0.  1.
         22   -1    0    0    0    0 -0.00000000000E+00 -0.00000000000E+00 -0.84725566433E+01  0.84725566433E+01  0.00000000000E+00 0. -1.
          4    1    1    2  501    0 -0.26089447735E+01  0.11447970345E+01 -0.37193457806E+01  0.48542338342E+01  0.12700000000E+01 0. -1.
         -4    1    1    2    0  501  0.26089447735E+01 -0.11447970345E+01 -0.36046276168E+01  0.47669060550E+01  0.12700000000E+01 0.  1.
<mgrwt>
<rscale>  0 0.31193033E+01</rscale>
<asrwt>0</asrwt>
<pdfrwt beam="1">0</pdfrwt>
<pdfrwt beam="2">0</pdfrwt>
<totfact> 0.16544340E+12</totfact>
</mgrwt>
</event>
<event>
 4    1  0.1750553E+006  0.2528279E+01  0.7546771E-02  0.2696193E+00
         22   -1    0    0    0    0  0.00000000000E+00  0.00000000000E+00  0.74641334958E+00  0.74641334958E+00  0.00000000000E+00 0.  1.
         22   -1    0    0    0    0 -0.00000000000E+00 -0.00000000000E+00 -0.95396600774E+01  0.95396600774E+01  0.00000000000E+00 0.  1.
          4    1    1    2  501    0  0.11402930326E+01  0.18652146883E+01 -0.27517622098E+01  0.37368956759E+01  0.12700000000E+01 0.  1.
         -4    1    1    2    0  501 -0.11402930326E+01 -0.18652146883E+01 -0.60414845180E+01  0.65491777511E+01  0.12700000000E+01 0.  1.
<mgrwt>
<rscale>  0 0.25282789E+01</rscale>
<asrwt>0</asrwt>
<pdfrwt beam="1">0</pdfrwt>
<pdfrwt beam="2">0</pdfrwt>
<totfact> 0.23440709E+12</totfact>
</mgrwt>
</event>
<event>
 4    1  0.1750553E+006  0.2079363E+01  0.7546771E-02  0.2929140E+00
         22   -1    0    0    0    0  0.00000000000E+00  0.00000000000E+00  0.71350500559E+00  0.71350500559E+00  0.00000000000E+00 0.  1.
         22   -1    0    0    0    0 -0.00000000000E+00 -0.00000000000E+00 -0.85316043273E+01  0.85316043273E+01  0.00000000000E+00 0. -1.
          4    1    1    2  501    0 -0.10131363768E+01  0.12978461956E+01 -0.14209527547E+01  0.25185028879E+01  0.12700000000E+01 0.  1.
         -4    1    1    2    0  501  0.10131363768E+01 -0.12978461956E+01 -0.63971465670E+01  0.67266064449E+01  0.12700000000E+01 0. -1.
<mgrwt>
<rscale>  0 0.20793629E+01</rscale>
<asrwt>0</asrwt>
<pdfrwt beam="1">0</pdfrwt>
<pdfrwt beam="2">0</pdfrwt>
<totfact> 0.28229088E+12</totfact>
</mgrwt>
</event>
<event>
 4    1  0.1750553E+006  0.2618975E+01  0.7546771E-02  0.2658293E+00
         22   -1    0    0    0    0  0.00000000000E+00  0.00000000000E+00  0.27248638247E+01  0.27248638247E+01  0.00000000000E+00 0. -1.
         22   -1    0    0    0    0 -0.00000000000E+00 -0.00000000000E+00 -0.39656675297E+01  0.39656675297E+01  0.00000000000E+00 0. -1.
          4    1    1    2  501    0 -0.20651272990E+01 -0.99064550284E+00  0.14013448014E+01  0.29703192633E+01  0.12700000000E+01 0. -1.
         -4    1    1    2    0  501  0.20651272990E+01  0.99064550284E+00 -0.26421485064E+01  0.37202120912E+01  0.12700000000E+01 0. -1.
<mgrwt>
<rscale>  0 0.26189749E+01</rscale>
<asrwt>0</asrwt>
<pdfrwt beam="1">0</pdfrwt>
<pdfrwt beam="2">0</pdfrwt>
<totfact> 0.15051744E+12</totfact>
</mgrwt>
</event>
<event>
 4    1  0.1750553E+006  0.3070481E+01  0.7546771E-02  0.2500366E+00
         22   -1    0    0    0    0  0.00000000000E+00  0.00000000000E+00  0.12855988219E+02  0.12855988219E+02  0.00000000000E+00 0. -1.
         22   -1    0    0    0    0 -0.00000000000E+00 -0.00000000000E+00 -0.77017222984E+00  0.77017222984E+00  0.00000000000E+00 0.  1.
          4    1    1    2  501    0 -0.46385562927E-01  0.27951390103E+01  0.75327620257E+01  0.81345164234E+01  0.12700000000E+01 0. -1.
         -4    1    1    2    0  501  0.46385562927E-01 -0.27951390103E+01  0.45530539632E+01  0.54916440251E+01  0.12700000000E+01 0.  1.
<mgrwt>
<rscale>  0 0.30704810E+01</rscale>
<asrwt>0</asrwt>
<pdfrwt beam="1">0</pdfrwt>
<pdfrwt beam="2">0</pdfrwt>
<totfact> 0.15739938E+12</totfact>
</mgrwt>
</event>
<event>
 4    1  0.1750553E+006  0.2273656E+01  0.7546771E-02  0.2817592E+00
         22   -1    0    0    0    0  0.00000000000E+00  0.00000000000E+00  0.25168175361E+01  0.25168175361E+01  0.00000000000E+00 0. -1.
         22   -1    0    0    0    0 -0.00000000000E+00 -0.00000000000E+00 -0.71281185533E+01  0.71281185533E+01  0.00000000000E+00 0. -1.
          4    1    1    2  501    0 -0.16582549052E+01  0.89822178427E+00  0.17631157592E+01  0.28771668156E+01  0.12700000000E+01 0. -1.
         -4    1    1    2    0  501  0.16582549052E+01 -0.89822178427E+00 -0.63744167764E+01  0.67677692738E+01  0.12700000000E+01 0. -1.
<mgrwt>
<rscale>  0 0.22736560E+01</rscale>
<asrwt>0</asrwt>
<pdfrwt beam="1">0</pdfrwt>
<pdfrwt beam="2">0</pdfrwt>
<totfact> 0.82345018E+11</totfact>
</mgrwt>
</event>
<event>
 4    1  0.1750553E+006  0.3266261E+01  0.7546771E-02  0.2444194E+00
         22   -1    0    0    0    0  0.00000000000E+00  0.00000000000E+00  0.15441838594E+00  0.15441838594E+00  0.00000000000E+00 0. -1.
         22   -1    0    0    0    0 -0.00000000000E+00 -0.00000000000E+00 -0.10196667666E+03  0.10196667666E+03  0.00000000000E+00 0.  1.
          4    1    1    2  501    0  0.14948971020E+01 -0.26116742734E+01 -0.21911777834E+02  0.22153881549E+02  0.12700000000E+01 0. -1.
         -4    1    1    2    0  501 -0.14948971020E+01  0.26116742734E+01 -0.79900480445E+02  0.79967213501E+02  0.12700000000E+01 0.  1.
<mgrwt>
<rscale>  0 0.32662608E+01</rscale>
<asrwt>0</asrwt>
<pdfrwt beam="1">0</pdfrwt>
<pdfrwt beam="2">0</pdfrwt>
<totfact> 0.65121814E+11</totfact>
</mgrwt>
</event>
<event>
 4    1  0.1750553E+006  0.2549319E+01  0.7546771E-02  0.2687178E+00
         22   -1    0    0    0    0  0.00000000000E+00  0.00000000000E+00  0.10479573266E+01  0.10479573266E+01  0.00000000000E+00 0. -1.
         22   -1    0    0    0    0 -0.00000000000E+00 -0.00000000000E+00 -0.64568558563E+01  0.64568558563E+01  0.00000000000E+00 0.  1.
          4    1    1    2  501    0 -0.10405487247E+01  0.19502276505E+01 -0.19583904040E+01  0.32147041095E+01  0.12700000000E+01 0. -1.
         -4    1    1    2    0  501  0.10405487247E+01 -0.19502276505E+01 -0.34505081257E+01  0.42901090735E+01  0.12700000000E+01 0.  1.
<mgrwt>
<rscale>  0 0.25493194E+01</rscale>
<asrwt>0</asrwt>
<pdfrwt beam="1">0</pdfrwt>
<pdfrwt beam="2">0</pdfrwt>
<totfact> 0.25443885E+12</totfact>
</mgrwt>
</event>
<event>
 4    1  0.1750553E+006  0.2123242E+01  0.7546771E-02  0.2902230E+00
         22   -1    0    0    0    0  0.00000000000E+00  0.00000000000E+00  0.22698158980E+02  0.22698158980E+02  0.00000000000E+00 0.  1.
         22   -1    0    0    0    0 -0.00000000000E+00 -0.00000000000E+00 -0.29545016900E+00  0.29545016900E+00  0.00000000000E+00 0.  1.
          4    1    1    2  501    0 -0.41411670604E+00  0.16503826537E+01  0.17783317872E+02  0.17909621719E+02  0.12700000000E+01 0.  1.
         -4    1    1    2    0  501  0.41411670604E+00 -0.16503826537E+01  0.46193909388E+01  0.50839874307E+01  0.12700000000E+01 0.  1.
<mgrwt>
<rscale>  0 0.21232418E+01</rscale>
<asrwt>0</asrwt>
<pdfrwt beam="1">0</pdfrwt>
<pdfrwt beam="2">0</pdfrwt>
<totfact> 0.22957376E+12</totfact>
</mgrwt>
</event>
<event>
 4    1  0.1750553E+006  0.2238189E+01  0.7546771E-02  0.2836568E+00
         22   -1    0    0    0    0  0.00000000000E+00  0.00000000000E+00  0.35660134551E+01  0.35660134551E+01  0.00000000000E+00 0.  1.
         22   -1    0    0    0    0 -0.00000000000E+00 -0.00000000000E+00 -0.35036989291E+01  0.35036989291E+01  0.00000000000E+00 0. -1.
          4    1    1    2  501    0  0.10522640612E+00 -0.18399773648E+01  0.27670903347E+01  0.35589715115E+01  0.12700000000E+01 0.  1.
         -4    1    1    2    0  501 -0.10522640612E+00  0.18399773648E+01 -0.27047758088E+01  0.35107408727E+01  0.12700000000E+01 0. -1.
<mgrwt>
<rscale>  0 0.22381888E+01</rscale>
<asrwt>0</asrwt>
<pdfrwt beam="1">0</pdfrwt>
<pdfrwt beam="2">0</pdfrwt>
<totfact> 0.12709504E+12</totfact>
</mgrwt>
</event>
<event>
 4    1  0.1750553E+006  0.3098430E+01  0.7546771E-02  0.2491962E+00
         22   -1    0    0    0    0  0.00000000000E+00  0.00000000000E+00  0.27170860271E+01  0.27170860271E+01  0.00000000000E+00 0. -1.
         22   -1    0    0    0    0 -0.00000000000E+00 -0.00000000000E+00 -0.51360649273E+01  0.51360649273E+01  0.00000000000E+00 0.  1.
          4    1    1    2  501    0 -0.19571826544E+01  0.20388239581E+01  0.98399348479E+00  0.32509245228E+01  0.12700000000E+01 0. -1.
         -4    1    1    2    0  501  0.19571826544E+01 -0.20388239581E+01 -0.34029723850E+01  0.46022264316E+01  0.12700000000E+01 0.  1.
<mgrwt>
<rscale>  0 0.30984298E+01</rscale>
<asrwt>0</asrwt>
<pdfrwt beam="1">0</pdfrwt>
<pdfrwt beam="2">0</pdfrwt>
<totfact> 0.11128557E+12</totfact>
</mgrwt>
</event>
<event>
 4    1  0.1750553E+006  0.9793345E+01  0.7546771E-02  0.1787425E+00
         22   -1    0    0    0    0  0.00000000000E+00  0.00000000000E+00  0.67223020504E+01  0.67223020504E+01  0.00000000000E+00 0. -1.
         22   -1    0    0    0    0 -0.00000000000E+00 -0.00000000000E+00 -0.14570618899E+02  0.14570618899E+02  0.00000000000E+00 0.  1.
          4    1    1    2  501    0 -0.18821190175E+01  0.95265066019E+01 -0.23882591740E+01  0.10080346319E+02  0.12700000000E+01 0. -1.
         -4    1    1    2    0  501  0.18821190175E+01 -0.95265066019E+01 -0.54600576750E+01  0.11212574631E+02  0.12700000000E+01 0.  1.
<mgrwt>
<rscale>  0 0.97933447E+01</rscale>
<asrwt>0</asrwt>
<pdfrwt beam="1">0</pdfrwt>
<pdfrwt beam="2">0</pdfrwt>
<totfact> 0.10880401E+11</totfact>
</mgrwt>
</event>
<event>
 4    1  0.1750553E+006  0.2000664E+01  0.7546771E-02  0.2980281E+00
         22   -1    0    0    0    0  0.00000000000E+00  0.00000000000E+00  0.93518518291E+01  0.93518518291E+01  0.00000000000E+00 0. -1.
         22   -1    0    0    0    0 -0.00000000000E+00 -0.00000000000E+00 -0.64491341148E+00  0.64491341148E+00  0.00000000000E+00 0.  1.
          4    1    1    2  501    0  0.15070570976E+01 -0.34428999843E+00  0.72522483826E+01  0.75231484965E+01  0.12700000000E+01 0. -1.
         -4    1    1    2    0  501 -0.15070570976E+01  0.34428999843E+00  0.14546900351E+01  0.24736167441E+01  0.12700000000E+01 0.  1.
<mgrwt>
<rscale>  0 0.20006641E+01</rscale>
<asrwt>0</asrwt>
<pdfrwt beam="1">0</pdfrwt>
<pdfrwt beam="2">0</pdfrwt>
<totfact> 0.28340441E+12</totfact>
</mgrwt>
</event>
<event>
 4    1  0.1750553E+006  0.2354698E+01  0.7546771E-02  0.2776275E+00
         22   -1    0    0    0    0  0.00000000000E+00  0.00000000000E+00  0.10844336117E+02  0.10844336117E+02  0.00000000000E+00 0.  1.
         22   -1    0    0    0    0 -0.00000000000E+00 -0.00000000000E+00 -0.34106959872E+01  0.34106959872E+01  0.00000000000E+00 0. -1.
          4    1    1    2  501    0 -0.10682942763E+01 -0.16704641014E+01  0.10288421236E+02  0.10554440511E+02  0.12700000000E+01 0.  1.
         -4    1    1    2    0  501  0.10682942763E+01  0.16704641014E+01 -0.28547811062E+01  0.37005915931E+01  0.12700000000E+01 0. -1.
<mgrwt>
<rscale>  0 0.23546981E+01</rscale>
<asrwt>0</asrwt>
<pdfrwt beam="1">0</pdfrwt>
<pdfrwt beam="2">0</pdfrwt>
<totfact> 0.34823084E+11</totfact>
</mgrwt>
</event>
<event>
 4    1  0.1750553E+006  0.2694805E+01  0.7546771E-02  0.2628416E+00
         22   -1    0    0    0    0  0.00000000000E+00  0.00000000000E+00  0.22218991513E+00  0.22218991513E+00  0.00000000000E+00 0. -1.
         22   -1    0    0    0    0 -0.00000000000E+00 -0.00000000000E+00 -0.32853643453E+02  0.32853643453E+02  0.00000000000E+00 0.  1.
          4    1    1    2  501    0  0.10217941189E+00 -0.23745808195E+01 -0.15126072525E+02  0.15364245661E+02  0.12700000000E+01 0.  1.
         -4    1    1    2    0  501 -0.10217941189E+00  0.23745808195E+01 -0.17505381013E+02  0.17711587707E+02  0.12700000000E+01 0.  1.
<mgrwt>
<rscale>  0 0.26948051E+01</rscale>
<asrwt>0</asrwt>
<pdfrwt beam="1">0</pdfrwt>
<pdfrwt beam="2">0</pdfrwt>
<totfact> 0.19762856E+12</totfact>
</mgrwt>
</event>
<event>
 4    1  0.1750553E+006  0.2260661E+01  0.7546771E-02  0.2824479E+00
         22   -1    0    0    0    0  0.00000000000E+00  0.00000000000E+00  0.36940626422E+01  0.36940626422E+01  0.00000000000E+00 0. -1.
         22   -1    0    0    0    0 -0.00000000000E+00 -0.00000000000E+00 -0.40778837234E+01  0.40778837234E+01  0.00000000000E+00 0.  1.
          4    1    1    2  501    0  0.14865422417E+01  0.11348478913E+01  0.29668400355E+01  0.37299768591E+01  0.12700000000E+01 0. -1.
         -4    1    1    2    0  501 -0.14865422417E+01 -0.11348478913E+01 -0.33506611168E+01  0.40419695066E+01  0.12700000000E+01 0.  1.
<mgrwt>
<rscale>  0 0.22606609E+01</rscale>
<asrwt>0</asrwt>
<pdfrwt beam="1">0</pdfrwt>
<pdfrwt beam="2">0</pdfrwt>
<totfact> 0.10202449E+12</totfact>
</mgrwt>
</event>
<event>
 4    1  0.1750553E+006  0.2220535E+01  0.7546771E-02  0.2846228E+00
         22   -1    0    0    0    0  0.00000000000E+00  0.00000000000E+00  0.32486735785E+01  0.32486735785E+01  0.00000000000E+00 0.  1.
         22   -1    0    0    0    0 -0.00000000000E+00 -0.00000000000E+00 -0.17548951622E+01  0.17548951622E+01  0.00000000000E+00 0.  1.
          4    1    1    2  501    0 -0.78220946320E+00 -0.16450002273E+01  0.16664964199E+01  0.27763262974E+01  0.12700000000E+01 0.  1.
         -4    1    1    2    0  501  0.78220946320E+00  0.16450002273E+01 -0.17271800365E+00  0.22272424432E+01  0.12700000000E+01 0.  1.
<mgrwt>
<rscale>  0 0.22205354E+01</rscale>
<asrwt>0</asrwt>
<pdfrwt beam="1">0</pdfrwt>
<pdfrwt beam="2">0</pdfrwt>
<totfact> 0.31682827E+12</totfact>
</mgrwt>
</event>
<event>
 4    1  0.1750553E+006  0.3169128E+01  0.7546771E-02  0.2471293E+00
         22   -1    0    0    0    0  0.00000000000E+00  0.00000000000E+00  0.89040133204E+00  0.89040133204E+00  0.00000000000E+00 0. -1.
         22   -1    0    0    0    0 -0.00000000000E+00 -0.00000000000E+00 -0.12810811834E+02  0.12810811834E+02  0.00000000000E+00 0.  1.
          4    1    1    2  501    0  0.26686111986E+01 -0.11441098449E+01 -0.35917892353E+01  0.47900232752E+01  0.12700000000E+01 0. -1.
         -4    1    1    2    0  501 -0.26686111986E+01  0.11441098449E+01 -0.83286212667E+01  0.89111898909E+01  0.12700000000E+01 0. -1.
<mgrwt>
<rscale>  0 0.31691281E+01</rscale>
<asrwt>0</asrwt>
<pdfrwt beam="1">0</pdfrwt>
<pdfrwt beam="2">0</pdfrwt>
<totfact> 0.13401850E+12</totfact>
</mgrwt>
</event>
<event>
 4    1  0.1750553E+006  0.8021476E+01  0.7546771E-02  0.1875039E+00
         22   -1    0    0    0    0  0.00000000000E+00  0.00000000000E+00  0.82449185273E+02  0.82449185273E+02  0.00000000000E+00 0.  1.
         22   -1    0    0    0    0 -0.00000000000E+00 -0.00000000000E+00 -0.78838961335E+00  0.78838961335E+00  0.00000000000E+00 0. -1.
          4    1    1    2  501    0  0.39994503852E+01 -0.68363415720E+01  0.36643015260E+02  0.37510726956E+02  0.12700000000E+01 0.  1.
         -4    1    1    2    0  501 -0.39994503852E+01  0.68363415720E+01  0.45017780399E+02  0.45726847930E+02  0.12700000000E+01 0. -1.
<mgrwt>
<rscale>  0 0.80214755E+01</rscale>
<asrwt>0</asrwt>
<pdfrwt beam="1">0</pdfrwt>
<pdfrwt beam="2">0</pdfrwt>
<totfact> 0.14015525E+11</totfact>
</mgrwt>
</event>
<event>
 4    1  0.1750553E+006  0.2771914E+01  0.7546771E-02  0.2599573E+00
         22   -1    0    0    0    0  0.00000000000E+00  0.00000000000E+00  0.14937737757E+01  0.14937737757E+01  0.00000000000E+00 0. -1.
         22   -1    0    0    0    0 -0.00000000000E+00 -0.00000000000E+00 -0.54306150390E+01  0.54306150390E+01  0.00000000000E+00 0.  1.
          4    1    1    2  501    0 -0.21585542321E+01  0.11879609302E+01 -0.27642354496E+01  0.39146526238E+01  0.12700000000E+01 0.  1.
         -4    1    1    2    0  501  0.21585542321E+01 -0.11879609302E+01 -0.11726058137E+01  0.30097361909E+01  0.12700000000E+01 0. -1.
<mgrwt>
<rscale>  0 0.27719141E+01</rscale>
<asrwt>0</asrwt>
<pdfrwt beam="1">0</pdfrwt>
<pdfrwt beam="2">0</pdfrwt>
<totfact> 0.20821889E+12</totfact>
</mgrwt>
</event>
<event>
 4    1  0.1750553E+006  0.3988079E+01  0.7546771E-02  0.2279579E+00
         22   -1    0    0    0    0  0.00000000000E+00  0.00000000000E+00  0.94246591000E+02  0.94246591000E+02  0.00000000000E+00 0. -1.
         22   -1    0    0    0    0 -0.00000000000E+00 -0.00000000000E+00 -0.25423420529E+00  0.25423420529E+00  0.00000000000E+00 0. -1.
          4    1    1    2  501    0 -0.11467210872E+00 -0.37787203846E+01  0.74393847999E+02  0.74500667095E+02  0.12700000000E+01 0. -1.
         -4    1    1    2    0  501  0.11467210872E+00  0.37787203846E+01  0.19598508795E+02  0.20000158110E+02  0.12700000000E+01 0. -1.
<mgrwt>
<rscale>  0 0.39880794E+01</rscale>
<asrwt>0</asrwt>
<pdfrwt beam="1">0</pdfrwt>
<pdfrwt beam="2">0</pdfrwt>
<totfact> 0.41708151E+11</totfact>
</mgrwt>
</event>
<event>
 4    1  0.1750553E+006  0.2279212E+01  0.7546771E-02  0.2814671E+00
         22   -1    0    0    0    0  0.00000000000E+00  0.00000000000E+00  0.11988473064E+00  0.11988473064E+00  0.00000000000E+00 0. -1.
         22   -1    0    0    0    0 -0.00000000000E+00 -0.00000000000E+00 -0.67192767096E+02  0.67192767096E+02  0.00000000000E+00 0. -1.
          4    1    1    2  501    0 -0.18838548418E+01  0.18165139752E+00 -0.13480151600E+02  0.13671477370E+02  0.12700000000E+01 0. -1.
         -4    1    1    2    0  501  0.18838548418E+01 -0.18165139752E+00 -0.53592730765E+02  0.53641174458E+02  0.12700000000E+01 0. -1.
<mgrwt>
<rscale>  0 0.22792118E+01</rscale>
<asrwt>0</asrwt>
<pdfrwt beam="1">0</pdfrwt>
<pdfrwt beam="2">0</pdfrwt>
<totfact> 0.15336996E+12</totfact>
</mgrwt>
</event>
<event>
 4    1  0.1750553E+006  0.2583743E+01  0.7546771E-02  0.2672723E+00
         22   -1    0    0    0    0  0.00000000000E+00  0.00000000000E+00  0.10802017979E+01  0.10802017979E+01  0.00000000000E+00 0.  1.
         22   -1    0    0    0    0 -0.00000000000E+00 -0.00000000000E+00 -0.81692333904E+01  0.81692333904E+01  0.00000000000E+00 0. -1.
          4    1    1    2  501    0 -0.17282588957E+01  0.14408152862E+01 -0.58265876385E+01  0.63737627041E+01  0.12700000000E+01 0. -1.
         -4    1    1    2    0  501  0.17282588957E+01 -0.14408152862E+01 -0.12624439540E+01  0.28756724842E+01  0.12700000000E+01 0.  1.
<mgrwt>
<rscale>  0 0.25837429E+01</rscale>
<asrwt>0</asrwt>
<pdfrwt beam="1">0</pdfrwt>
<pdfrwt beam="2">0</pdfrwt>
<totfact> 0.18543437E+12</totfact>
</mgrwt>
</event>
<event>
 4    1  0.1750553E+006  0.2018659E+01  0.7546771E-02  0.2968243E+00
         22   -1    0    0    0    0  0.00000000000E+00  0.00000000000E+00  0.38895704237E+00  0.38895704237E+00  0.00000000000E+00 0. -1.
         22   -1    0    0    0    0 -0.00000000000E+00 -0.00000000000E+00 -0.15471062729E+02  0.15471062729E+02  0.00000000000E+00 0. -1.
          4    1    1    2  501    0  0.36016629279E+00 -0.15272083832E+01 -0.30354406118E+01  0.36453922850E+01  0.12700000000E+01 0. -1.
         -4    1    1    2    0  501 -0.36016629279E+00  0.15272083832E+01 -0.12046665075E+02  0.12214627486E+02  0.12700000000E+01 0. -1.
<mgrwt>
<rscale>  0 0.20186593E+01</rscale>
<asrwt>0</asrwt>
<pdfrwt beam="1">0</pdfrwt>
<pdfrwt beam="2">0</pdfrwt>
<totfact> 0.27149300E+12</totfact>
</mgrwt>
</event>
<event>
 4    1  0.1750553E+006  0.3125297E+01  0.7546771E-02  0.2484009E+00
         22   -1    0    0    0    0  0.00000000000E+00  0.00000000000E+00  0.35690797826E+02  0.35690797826E+02  0.00000000000E+00 0. -1.
         22   -1    0    0    0    0 -0.00000000000E+00 -0.00000000000E+00 -0.30980780351E+00  0.30980780351E+00  0.00000000000E+00 0. -1.
          4    1    1    2  501    0 -0.19344742955E+01 -0.21005683574E+01  0.23838274549E+02  0.24042271350E+02  0.12700000000E+01 0. -1.
         -4    1    1    2    0  501  0.19344742955E+01  0.21005683574E+01  0.11542715474E+02  0.11958334279E+02  0.12700000000E+01 0. -1.
<mgrwt>
<rscale>  0 0.31252965E+01</rscale>
<asrwt>0</asrwt>
<pdfrwt beam="1">0</pdfrwt>
<pdfrwt beam="2">0</pdfrwt>
<totfact> 0.12247514E+12</totfact>
</mgrwt>
</event>
<event>
 4    1  0.1750553E+006  0.2203631E+01  0.7546771E-02  0.2855617E+00
         22   -1    0    0    0    0  0.00000000000E+00  0.00000000000E+00  0.20295583897E+01  0.20295583897E+01  0.00000000000E+00 0.  1.
         22   -1    0    0    0    0 -0.00000000000E+00 -0.00000000000E+00 -0.30163477990E+01  0.30163477990E+01  0.00000000000E+00 0. -1.
          4    1    1    2  501    0  0.42150152928E+00  0.17508363356E+01  0.65386297111E+00  0.22985926560E+01  0.12700000000E+01 0.  1.
         -4    1    1    2    0  501 -0.42150152928E+00 -0.17508363356E+01 -0.16406523804E+01  0.27473135327E+01  0.12700000000E+01 0. -1.
<mgrwt>
<rscale>  0 0.22036314E+01</rscale>
<asrwt>0</asrwt>
<pdfrwt beam="1">0</pdfrwt>
<pdfrwt beam="2">0</pdfrwt>
<totfact> 0.29208026E+12</totfact>
</mgrwt>
</event>
<event>
 4    1  0.1750553E+006  0.3118441E+01  0.7546771E-02  0.2486027E+00
         22   -1    0    0    0    0  0.00000000000E+00  0.00000000000E+00  0.36762764601E+01  0.36762764601E+01  0.00000000000E+00 0. -1.
         22   -1    0    0    0    0 -0.00000000000E+00 -0.00000000000E+00 -0.46105257612E+01  0.46105257612E+01  0.00000000000E+00 0.  1.
          4    1    1    2  501    0 -0.27263124461E+01  0.82401011865E+00  0.22380383745E+01  0.38384225920E+01  0.12700000000E+01 0. -1.
         -4    1    1    2    0  501  0.27263124461E+01 -0.82401011865E+00 -0.31722876756E+01  0.44483796293E+01  0.12700000000E+01 0.  1.
<mgrwt>
<rscale>  0 0.31184407E+01</rscale>
<asrwt>0</asrwt>
<pdfrwt beam="1">0</pdfrwt>
<pdfrwt beam="2">0</pdfrwt>
<totfact> 0.88779622E+11</totfact>
</mgrwt>
</event>
<event>
 4    1  0.1750553E+006  0.2550404E+01  0.7546771E-02  0.2686717E+00
         22   -1    0    0    0    0  0.00000000000E+00  0.00000000000E+00  0.42466004162E+00  0.42466004162E+00  0.00000000000E+00 0.  1.
         22   -1    0    0    0    0 -0.00000000000E+00 -0.00000000000E+00 -0.15994213092E+02  0.15994213092E+02  0.00000000000E+00 0.  1.
          4    1    1    2  501    0 -0.21113389529E+01  0.65871603589E+00 -0.94739082741E+01  0.98111924340E+01  0.12700000000E+01 0.  1.
         -4    1    1    2    0  501  0.21113389529E+01 -0.65871603589E+00 -0.60956447759E+01  0.66076806993E+01  0.12700000000E+01 0.  1.
<mgrwt>
<rscale>  0 0.25504037E+01</rscale>
<asrwt>0</asrwt>
<pdfrwt beam="1">0</pdfrwt>
<pdfrwt beam="2">0</pdfrwt>
<totfact> 0.23607571E+12</totfact>
</mgrwt>
</event>
