<event>
 4    1  0.3335341E+006  0.2101656E+01  0.7546771E-02  0.2915332E+00
         22   -1    0    0    0    0  0.00000000000E+00  0.00000000000E+00  0.22063352775E+02  0.22063352775E+02  0.00000000000E+00 0.  1.
         22   -1    0    0    0    0 -0.00000000000E+00 -0.00000000000E+00 -0.27811187121E+00  0.27811187121E+00  0.00000000000E+00 0. -1.
          2    1    1    2  501    0  0.16827704864E+01 -0.12590611835E+01  0.49798705754E+01  0.54051890830E+01  0.25500000000E-02 0. -1.
         -2    1    1    2    0  501 -0.16827704864E+01  0.12590611835E+01  0.16805370328E+02  0.16936275563E+02  0.25500000000E-02 0.  1.
<mgrwt>
<rscale>  0 0.21016560E+01</rscale>
<asrwt>0</asrwt>
<pdfrwt beam="1">0</pdfrwt>
<pdfrwt beam="2">0</pdfrwt>
<totfact> 0.25456551E+12</totfact>
</mgrwt>
</event>
<event>
 4    1  0.3335341E+006  0.3333764E+01  0.7546771E-02  0.2426184E+00
         22   -1    0    0    0    0  0.00000000000E+00  0.00000000000E+00  0.45740569804E+01  0.45740569804E+01  0.00000000000E+00 0.  1.
         22   -1    0    0    0    0 -0.00000000000E+00 -0.00000000000E+00 -0.52476433524E+01  0.52476433524E+01  0.00000000000E+00 0. -1.
          2    1    1    2  501    0 -0.50380962737E-01  0.33333821423E+01 -0.39353967239E+01  0.51576475864E+01  0.25500000000E-02 0. -1.
         -2    1    1    2    0  501  0.50380962737E-01 -0.33333821423E+01  0.32618103519E+01  0.46640527465E+01  0.25500000000E-02 0.  1.
<mgrwt>
<rscale>  0 0.33337638E+01</rscale>
<asrwt>0</asrwt>
<pdfrwt beam="1">0</pdfrwt>
<pdfrwt beam="2">0</pdfrwt>
<totfact> 0.58890691E+11</totfact>
</mgrwt>
</event>
<event>
 4    1  0.3335341E+006  0.2192840E+01  0.7546771E-02  0.2861683E+00
         22   -1    0    0    0    0  0.00000000000E+00  0.00000000000E+00  0.12783058283E+02  0.12783058283E+02  0.00000000000E+00 0. -1.
         22   -1    0    0    0    0 -0.00000000000E+00 -0.00000000000E+00 -0.51297560117E+00  0.51297560117E+00  0.00000000000E+00 0.  1.
          2    1    1    2  501    0  0.13039720916E+01 -0.17630085129E+01  0.27018149305E+01  0.34797058286E+01  0.25500000000E-02 0.  1.
         -2    1    1    2    0  501 -0.13039720916E+01  0.17630085129E+01  0.95682677517E+01  0.98163280560E+01  0.25500000000E-02 0. -1.
<mgrwt>
<rscale>  0 0.21928403E+01</rscale>
<asrwt>0</asrwt>
<pdfrwt beam="1">0</pdfrwt>
<pdfrwt beam="2">0</pdfrwt>
<totfact> 0.25118679E+12</totfact>
</mgrwt>
</event>
<event>
 4    1  0.3335341E+006  0.3234564E+01  0.7546771E-02  0.2452878E+00
         22   -1    0    0    0    0  0.00000000000E+00  0.00000000000E+00  0.87853708314E+01  0.87853708314E+01  0.00000000000E+00 0. -1.
         22   -1    0    0    0    0 -0.00000000000E+00 -0.00000000000E+00 -0.32992466518E+01  0.32992466518E+01  0.00000000000E+00 0.  1.
          2    1    1    2  501    0 -0.29118005240E+01 -0.14084805611E+01 -0.20871656320E+01  0.38495021315E+01  0.25500000000E-02 0.  1.
         -2    1    1    2    0  501  0.29118005240E+01  0.14084805611E+01  0.75732898116E+01  0.82351153517E+01  0.25500000000E-02 0. -1.
<mgrwt>
<rscale>  0 0.32345643E+01</rscale>
<asrwt>0</asrwt>
<pdfrwt beam="1">0</pdfrwt>
<pdfrwt beam="2">0</pdfrwt>
<totfact> 0.46711161E+11</totfact>
</mgrwt>
</event>
<event>
 4    1  0.3335341E+006  0.2694091E+01  0.7546771E-02  0.2628690E+00
         22   -1    0    0    0    0  0.00000000000E+00  0.00000000000E+00  0.45943530419E+01  0.45943530419E+01  0.00000000000E+00 0.  1.
         22   -1    0    0    0    0 -0.00000000000E+00 -0.00000000000E+00 -0.17581330997E+01  0.17581330997E+01  0.00000000000E+00 0. -1.
          2    1    1    2  501    0  0.19758102251E+01 -0.18314728045E+01  0.40650074802E+00  0.27245858474E+01  0.25500000000E-02 0. -1.
         -2    1    1    2    0  501 -0.19758102251E+01  0.18314728045E+01  0.24297191943E+01  0.36279002942E+01  0.25500000000E-02 0.  1.
<mgrwt>
<rscale>  0 0.26940908E+01</rscale>
<asrwt>0</asrwt>
<pdfrwt beam="1">0</pdfrwt>
<pdfrwt beam="2">0</pdfrwt>
<totfact> 0.21035478E+12</totfact>
</mgrwt>
</event>
<event>
 4    1  0.3335341E+006  0.2405552E+01  0.7546771E-02  0.2751693E+00
         22   -1    0    0    0    0  0.00000000000E+00  0.00000000000E+00  0.26415303758E+01  0.26415303758E+01  0.00000000000E+00 0.  1.
         22   -1    0    0    0    0 -0.00000000000E+00 -0.00000000000E+00 -0.25389819426E+01  0.25389819426E+01  0.00000000000E+00 0. -1.
          2    1    1    2  501    0 -0.74882160649E+00 -0.22860313773E+01 -0.90814167338E+00  0.25712644861E+01  0.25500000000E-02 0.  1.
         -2    1    1    2    0  501  0.74882160649E+00  0.22860313773E+01  0.10106901066E+01  0.26092478323E+01  0.25500000000E-02 0. -1.
<mgrwt>
<rscale>  0 0.24055519E+01</rscale>
<asrwt>0</asrwt>
<pdfrwt beam="1">0</pdfrwt>
<pdfrwt beam="2">0</pdfrwt>
<totfact> 0.26293592E+12</totfact>
</mgrwt>
</event>
<event>
 4    1  0.3335341E+006  0.2015380E+01  0.7546771E-02  0.2970421E+00
         22   -1    0    0    0    0  0.00000000000E+00  0.00000000000E+00  0.46080334305E+01  0.46080334305E+01  0.00000000000E+00 0.  1.
         22   -1    0    0    0    0 -0.00000000000E+00 -0.00000000000E+00 -0.98697282508E+00  0.98697282508E+00  0.00000000000E+00 0. -1.
          2    1    1    2  501    0  0.16918859190E+01  0.10951134003E+01  0.27252502931E+01  0.33895054189E+01  0.25500000000E-02 0.  1.
         -2    1    1    2    0  501 -0.16918859190E+01 -0.10951134003E+01  0.89581031233E+00  0.22055008367E+01  0.25500000000E-02 0. -1.
<mgrwt>
<rscale>  0 0.20153803E+01</rscale>
<asrwt>0</asrwt>
<pdfrwt beam="1">0</pdfrwt>
<pdfrwt beam="2">0</pdfrwt>
<totfact> 0.40662855E+12</totfact>
</mgrwt>
</event>
<event>
 4    1  0.3335341E+006  0.2590649E+01  0.7546771E-02  0.2669866E+00
         22   -1    0    0    0    0  0.00000000000E+00  0.00000000000E+00  0.10151927625E+01  0.10151927625E+01  0.00000000000E+00 0. -1.
         22   -1    0    0    0    0 -0.00000000000E+00 -0.00000000000E+00 -0.10289503391E+02  0.10289503391E+02  0.00000000000E+00 0.  1.
          2    1    1    2  501    0  0.23840699976E+01  0.10137384934E+01 -0.80167604003E+01  0.84249575254E+01  0.25500000000E-02 0.  1.
         -2    1    1    2    0  501 -0.23840699976E+01 -0.10137384934E+01 -0.12575502281E+01  0.28797386280E+01  0.25500000000E-02 0. -1.
<mgrwt>
<rscale>  0 0.25906490E+01</rscale>
<asrwt>0</asrwt>
<pdfrwt beam="1">0</pdfrwt>
<pdfrwt beam="2">0</pdfrwt>
<totfact> 0.15067008E+12</totfact>
</mgrwt>
</event>
<event>
 4    1  0.3335341E+006  0.2123108E+01  0.7546771E-02  0.2902311E+00
         22   -1    0    0    0    0  0.00000000000E+00  0.00000000000E+00  0.72439257594E+01  0.72439257594E+01  0.00000000000E+00 0. -1.
         22   -1    0    0    0    0 -0.00000000000E+00 -0.00000000000E+00 -0.67580509438E+00  0.67580509438E+00  0.00000000000E+00 0.  1.
          2    1    1    2  501    0 -0.21187120275E+01 -0.13652630125E+00  0.21694065769E+01  0.30354425517E+01  0.25500000000E-02 0.  1.
         -2    1    1    2    0  501  0.21187120275E+01  0.13652630125E+00  0.43987140881E+01  0.48842883020E+01  0.25500000000E-02 0. -1.
<mgrwt>
<rscale>  0 0.21231078E+01</rscale>
<asrwt>0</asrwt>
<pdfrwt beam="1">0</pdfrwt>
<pdfrwt beam="2">0</pdfrwt>
<totfact> 0.36541011E+12</totfact>
</mgrwt>
</event>
<event>
 4    1  0.3335341E+006  0.8011806E+01  0.7546771E-02  0.1875595E+00
         22   -1    0    0    0    0  0.00000000000E+00  0.00000000000E+00  0.18035254666E+02  0.18035254666E+02  0.00000000000E+00 0.  1.
         22   -1    0    0    0    0 -0.00000000000E+00 -0.00000000000E+00 -0.63417450344E+01  0.63417450344E+01  0.00000000000E+00 0. -1.
          2    1    1    2  501    0  0.35092847287E+01 -0.72023572433E+01 -0.22270046614E+01  0.83155628452E+01  0.25500000000E-02 0. -1.
         -2    1    1    2    0  501 -0.35092847287E+01  0.72023572433E+01  0.13920514293E+02  0.16061436855E+02  0.25500000000E-02 0.  1.
<mgrwt>
<rscale>  0 0.80118060E+01</rscale>
<asrwt>0</asrwt>
<pdfrwt beam="1">0</pdfrwt>
<pdfrwt beam="2">0</pdfrwt>
<totfact> 0.89629151E+10</totfact>
</mgrwt>
</event>
<event>
 4    1  0.3335341E+006  0.2238867E+01  0.7546771E-02  0.2836200E+00
         22   -1    0    0    0    0  0.00000000000E+00  0.00000000000E+00  0.75390440596E+01  0.75390440596E+01  0.00000000000E+00 0.  1.
         22   -1    0    0    0    0 -0.00000000000E+00 -0.00000000000E+00 -0.15346801268E+01  0.15346801268E+01  0.00000000000E+00 0. -1.
          2    1    1    2  501    0 -0.10829304364E+00  0.22362453404E+01 -0.41334291427E+00  0.22767036419E+01  0.25500000000E-02 0. -1.
         -2    1    1    2    0  501  0.10829304364E+00 -0.22362453404E+01  0.64177068471E+01  0.67970205445E+01  0.25500000000E-02 0.  1.
<mgrwt>
<rscale>  0 0.22388674E+01</rscale>
<asrwt>0</asrwt>
<pdfrwt beam="1">0</pdfrwt>
<pdfrwt beam="2">0</pdfrwt>
<totfact> 0.13647706E+12</totfact>
</mgrwt>
</event>
<event>
 4    1  0.3335341E+006  0.2140571E+01  0.7546771E-02  0.2891897E+00
         22   -1    0    0    0    0  0.00000000000E+00  0.00000000000E+00  0.24382249148E+01  0.24382249148E+01  0.00000000000E+00 0.  1.
         22   -1    0    0    0    0 -0.00000000000E+00 -0.00000000000E+00 -0.38735636809E+01  0.38735636809E+01  0.00000000000E+00 0. -1.
          2    1    1    2  501    0 -0.72879256106E+00  0.20126842649E+01 -0.29821230366E+01  0.36708447059E+01  0.25500000000E-02 0. -1.
         -2    1    1    2    0  501  0.72879256106E+00 -0.20126842649E+01  0.15467842705E+01  0.26409438898E+01  0.25500000000E-02 0.  1.
<mgrwt>
<rscale>  0 0.21405707E+01</rscale>
<asrwt>0</asrwt>
<pdfrwt beam="1">0</pdfrwt>
<pdfrwt beam="2">0</pdfrwt>
<totfact> 0.17609669E+12</totfact>
</mgrwt>
</event>
<event>
 4    1  0.3335341E+006  0.2174102E+01  0.7546771E-02  0.2872354E+00
         22   -1    0    0    0    0  0.00000000000E+00  0.00000000000E+00  0.12907271689E+02  0.12907271689E+02  0.00000000000E+00 0. -1.
         22   -1    0    0    0    0 -0.00000000000E+00 -0.00000000000E+00 -0.54762131962E+00  0.54762131962E+00  0.00000000000E+00 0.  1.
          2    1    1    2  501    0  0.18200545113E+01  0.11891658584E+01  0.23077208075E+01  0.31705355527E+01  0.25500000000E-02 0.  1.
         -2    1    1    2    0  501 -0.18200545113E+01 -0.11891658584E+01  0.10051929562E+02  0.10284357456E+02  0.25500000000E-02 0. -1.
<mgrwt>
<rscale>  0 0.21741022E+01</rscale>
<asrwt>0</asrwt>
<pdfrwt beam="1">0</pdfrwt>
<pdfrwt beam="2">0</pdfrwt>
<totfact> 0.23055804E+12</totfact>
</mgrwt>
</event>
<event>
 4    1  0.3335341E+006  0.2393019E+01  0.7546771E-02  0.2757659E+00
         22   -1    0    0    0    0  0.00000000000E+00  0.00000000000E+00  0.55791061286E+00  0.55791061286E+00  0.00000000000E+00 0.  1.
         22   -1    0    0    0    0 -0.00000000000E+00 -0.00000000000E+00 -0.14283028338E+02  0.14283028338E+02  0.00000000000E+00 0. -1.
          2    1    1    2  501    0 -0.11264788841E+01  0.21112981542E+01 -0.10798672026E+02  0.11060644584E+02  0.25500000000E-02 0. -1.
         -2    1    1    2    0  501  0.11264788841E+01 -0.21112981542E+01 -0.29264456992E+01  0.37802943675E+01  0.25500000000E-02 0.  1.
<mgrwt>
<rscale>  0 0.23930192E+01</rscale>
<asrwt>0</asrwt>
<pdfrwt beam="1">0</pdfrwt>
<pdfrwt beam="2">0</pdfrwt>
<totfact> 0.19941188E+12</totfact>
</mgrwt>
</event>
<event>
 4    1  0.3335341E+006  0.2534938E+01  0.7546771E-02  0.2693324E+00
         22   -1    0    0    0    0  0.00000000000E+00  0.00000000000E+00  0.23346086006E+02  0.23346086006E+02  0.00000000000E+00 0.  1.
         22   -1    0    0    0    0 -0.00000000000E+00 -0.00000000000E+00 -0.28106492086E+00  0.28106492086E+00  0.00000000000E+00 0. -1.
          2    1    1    2  501    0  0.25275114824E+01 -0.19388530800E+00  0.98326768876E+01  0.10154183723E+02  0.25500000000E-02 0. -1.
         -2    1    1    2    0  501 -0.25275114824E+01  0.19388530800E+00  0.13232344197E+02  0.13472967203E+02  0.25500000000E-02 0.  1.
<mgrwt>
<rscale>  0 0.25349383E+01</rscale>
<asrwt>0</asrwt>
<pdfrwt beam="1">0</pdfrwt>
<pdfrwt beam="2">0</pdfrwt>
<totfact> 0.23436531E+12</totfact>
</mgrwt>
</event>
<event>
 4    1  0.3335341E+006  0.5301963E+01  0.7546771E-02  0.2088596E+00
         22   -1    0    0    0    0  0.00000000000E+00  0.00000000000E+00  0.46924727207E+01  0.46924727207E+01  0.00000000000E+00 0.  1.
         22   -1    0    0    0    0 -0.00000000000E+00 -0.00000000000E+00 -0.17098659537E+02  0.17098659537E+02  0.00000000000E+00 0. -1.
          2    1    1    2  501    0 -0.15129955629E+01 -0.50815006418E+01 -0.14984973824E+02  0.15895290225E+02  0.25500000000E-02 0. -1.
         -2    1    1    2    0  501  0.15129955629E+01  0.50815006418E+01  0.25787870071E+01  0.58958420328E+01  0.25500000000E-02 0.  1.
<mgrwt>
<rscale>  0 0.53019629E+01</rscale>
<asrwt>0</asrwt>
<pdfrwt beam="1">0</pdfrwt>
<pdfrwt beam="2">0</pdfrwt>
<totfact> 0.13690698E+11</totfact>
</mgrwt>
</event>
<event>
 4    1  0.3335341E+006  0.2685891E+01  0.7546771E-02  0.2631847E+00
         22   -1    0    0    0    0  0.00000000000E+00  0.00000000000E+00  0.90217605517E+01  0.90217605517E+01  0.00000000000E+00 0. -1.
         22   -1    0    0    0    0 -0.00000000000E+00 -0.00000000000E+00 -0.98692309376E+00  0.98692309376E+00  0.00000000000E+00 0.  1.
          2    1    1    2  501    0  0.26626091136E+01  0.35287000500E+00  0.18373317534E+01  0.32541971371E+01  0.25500000000E-02 0.  1.
         -2    1    1    2    0  501 -0.26626091136E+01 -0.35287000500E+00  0.61975057045E+01  0.67544865084E+01  0.25500000000E-02 0. -1.
<mgrwt>
<rscale>  0 0.26858911E+01</rscale>
<asrwt>0</asrwt>
<pdfrwt beam="1">0</pdfrwt>
<pdfrwt beam="2">0</pdfrwt>
<totfact> 0.18242690E+12</totfact>
</mgrwt>
</event>
<event>
 4    1  0.3335341E+006  0.2304055E+01  0.7546771E-02  0.2801771E+00
         22   -1    0    0    0    0  0.00000000000E+00  0.00000000000E+00  0.22572782262E+00  0.22572782262E+00  0.00000000000E+00 0.  1.
         22   -1    0    0    0    0 -0.00000000000E+00 -0.00000000000E+00 -0.53940979993E+02  0.53940979993E+02  0.00000000000E+00 0. -1.
          2    1    1    2  501    0  0.15622978884E+01 -0.16934838847E+01 -0.47197293326E+02  0.47253498984E+02  0.25500000000E-02 0. -1.
         -2    1    1    2    0  501 -0.15622978884E+01  0.16934838847E+01 -0.65179588444E+01  0.69132088324E+01  0.25500000000E-02 0.  1.
<mgrwt>
<rscale>  0 0.23040549E+01</rscale>
<asrwt>0</asrwt>
<pdfrwt beam="1">0</pdfrwt>
<pdfrwt beam="2">0</pdfrwt>
<totfact> 0.10176370E+12</totfact>
</mgrwt>
</event>
<event>
 4    1  0.3335341E+006  0.2071206E+01  0.7546771E-02  0.2934264E+00
         22   -1    0    0    0    0  0.00000000000E+00  0.00000000000E+00  0.22636397934E+02  0.22636397934E+02  0.00000000000E+00 0. -1.
         22   -1    0    0    0    0 -0.00000000000E+00 -0.00000000000E+00 -0.38864702543E+00  0.38864702543E+00  0.00000000000E+00 0.  1.
          2    1    1    2  501    0  0.11112399566E+01 -0.17478652729E+01  0.28831498448E+01  0.35499925047E+01  0.25500000000E-02 0.  1.
         -2    1    1    2    0  501 -0.11112399566E+01  0.17478652729E+01  0.19364601064E+02  0.19475052455E+02  0.25500000000E-02 0. -1.
<mgrwt>
<rscale>  0 0.20712059E+01</rscale>
<asrwt>0</asrwt>
<pdfrwt beam="1">0</pdfrwt>
<pdfrwt beam="2">0</pdfrwt>
<totfact> 0.16930694E+12</totfact>
</mgrwt>
</event>
<event>
 4    1  0.3335341E+006  0.3514366E+01  0.7546771E-02  0.2381001E+00
         22   -1    0    0    0    0  0.00000000000E+00  0.00000000000E+00  0.16614804919E+02  0.16614804919E+02  0.00000000000E+00 0.  1.
         22   -1    0    0    0    0 -0.00000000000E+00 -0.00000000000E+00 -0.90073636746E+00  0.90073636746E+00  0.00000000000E+00 0. -1.
          2    1    1    2  501    0  0.12390326529E+01  0.32887021280E+01  0.41963235344E+01  0.54735638582E+01  0.25500000000E-02 0. -1.
         -2    1    1    2    0  501 -0.12390326529E+01 -0.32887021280E+01  0.11517745018E+02  0.12041977429E+02  0.25500000000E-02 0.  1.
<mgrwt>
<rscale>  0 0.35143662E+01</rscale>
<asrwt>0</asrwt>
<pdfrwt beam="1">0</pdfrwt>
<pdfrwt beam="2">0</pdfrwt>
<totfact> 0.96084476E+11</totfact>
</mgrwt>
</event>
<event>
 4    1  0.3335341E+006  0.2480079E+01  0.7546771E-02  0.2717378E+00
         22   -1    0    0    0    0  0.00000000000E+00  0.00000000000E+00  0.90675971750E+01  0.90675971750E+01  0.00000000000E+00 0. -1.
         22   -1    0    0    0    0 -0.00000000000E+00 -0.00000000000E+00 -0.72315419962E+00  0.72315419962E+00  0.00000000000E+00 0.  1.
          2    1    1    2  501    0 -0.17613246428E+01 -0.17460007798E+01  0.29533870343E+01  0.38565897756E+01  0.25500000000E-02 0. -1.
         -2    1    1    2    0  501  0.17613246428E+01  0.17460007798E+01  0.53910559411E+01  0.59341615990E+01  0.25500000000E-02 0.  1.
<mgrwt>
<rscale>  0 0.24800786E+01</rscale>
<asrwt>0</asrwt>
<pdfrwt beam="1">0</pdfrwt>
<pdfrwt beam="2">0</pdfrwt>
<totfact> 0.25834885E+12</totfact>
</mgrwt>
</event>
<event>
 4    1  0.3335341E+006  0.2371925E+01  0.7546771E-02  0.2767837E+00
         22   -1    0    0    0    0  0.00000000000E+00  0.00000000000E+00  0.84420435628E+00  0.84420435628E+00  0.00000000000E+00 0.  1.
         22   -1    0    0    0    0 -0.00000000000E+00 -0.00000000000E+00 -0.72890852219E+01  0.72890852219E+01  0.00000000000E+00 0. -1.
          2    1    1    2  501    0 -0.14726038723E+01  0.18594241611E+01 -0.44130430545E+01  0.50100874123E+01  0.25500000000E-02 0. -1.
         -2    1    1    2    0  501  0.14726038723E+01 -0.18594241611E+01 -0.20318378111E+01  0.31232021658E+01  0.25500000000E-02 0.  1.
<mgrwt>
<rscale>  0 0.23719247E+01</rscale>
<asrwt>0</asrwt>
<pdfrwt beam="1">0</pdfrwt>
<pdfrwt beam="2">0</pdfrwt>
<totfact> 0.28167530E+12</totfact>
</mgrwt>
</event>
<event>
 4    1  0.3335341E+006  0.4790760E+01  0.7546771E-02  0.2148840E+00
         22   -1    0    0    0    0  0.00000000000E+00  0.00000000000E+00  0.22349617755E+02  0.22349617755E+02  0.00000000000E+00 0.  1.
         22   -1    0    0    0    0 -0.00000000000E+00 -0.00000000000E+00 -0.11439715136E+01  0.11439715136E+01  0.00000000000E+00 0. -1.
          2    1    1    2  501    0 -0.47188640697E+01  0.82685922681E+00  0.68453918353E+01  0.83552839671E+01  0.25500000000E-02 0.  1.
         -2    1    1    2    0  501  0.47188640697E+01 -0.82685922681E+00  0.14360254406E+02  0.15138305302E+02  0.25500000000E-02 0. -1.
<mgrwt>
<rscale>  0 0.47907599E+01</rscale>
<asrwt>0</asrwt>
<pdfrwt beam="1">0</pdfrwt>
<pdfrwt beam="2">0</pdfrwt>
<totfact> 0.50554811E+11</totfact>
</mgrwt>
</event>
<event>
 4    1  0.3335341E+006  0.2096403E+01  0.7546771E-02  0.2918560E+00
         22   -1    0    0    0    0  0.00000000000E+00  0.00000000000E+00  0.67913234383E+01  0.67913234383E+01  0.00000000000E+00 0. -1.
         22   -1    0    0    0    0 -0.00000000000E+00 -0.00000000000E+00 -0.76830708802E+00  0.76830708802E+00  0.00000000000E+00 0.  1.
          2    1    1    2  501    0  0.15474747830E+01 -0.14142923058E+01  0.15104300186E+01  0.25838549251E+01  0.25500000000E-02 0.  1.
         -2    1    1    2    0  501 -0.15474747830E+01  0.14142923058E+01  0.45125863317E+01  0.49757756012E+01  0.25500000000E-02 0. -1.
<mgrwt>
<rscale>  0 0.20964035E+01</rscale>
<asrwt>0</asrwt>
<pdfrwt beam="1">0</pdfrwt>
<pdfrwt beam="2">0</pdfrwt>
<totfact> 0.34121188E+12</totfact>
</mgrwt>
</event>
<event>
 4    1  0.3335341E+006  0.2258412E+01  0.7546771E-02  0.2825678E+00
         22   -1    0    0    0    0  0.00000000000E+00  0.00000000000E+00  0.43200957177E+01  0.43200957177E+01  0.00000000000E+00 0.  1.
         22   -1    0    0    0    0 -0.00000000000E+00 -0.00000000000E+00 -0.27732917524E+01  0.27732917524E+01  0.00000000000E+00 0. -1.
          2    1    1    2  501    0  0.78865993858E+00  0.21162313966E+01 -0.19143422861E+01  0.29605966820E+01  0.25500000000E-02 0. -1.
         -2    1    1    2    0  501 -0.78865993858E+00 -0.21162313966E+01  0.34611462513E+01  0.41327907881E+01  0.25500000000E-02 0.  1.
<mgrwt>
<rscale>  0 0.22584123E+01</rscale>
<asrwt>0</asrwt>
<pdfrwt beam="1">0</pdfrwt>
<pdfrwt beam="2">0</pdfrwt>
<totfact> 0.13331033E+12</totfact>
</mgrwt>
</event>
<event>
 4    1  0.3335341E+006  0.2051770E+01  0.7546771E-02  0.2946634E+00
         22   -1    0    0    0    0  0.00000000000E+00  0.00000000000E+00  0.93526666714E+00  0.93526666714E+00  0.00000000000E+00 0. -1.
         22   -1    0    0    0    0 -0.00000000000E+00 -0.00000000000E+00 -0.23609269201E+02  0.23609269201E+02  0.00000000000E+00 0.  1.
          2    1    1    2  501    0  0.20354528675E+01  0.25823712666E+00 -0.22377601900E+02  0.22471466977E+02  0.25500000000E-02 0.  1.
         -2    1    1    2    0  501 -0.20354528675E+01 -0.25823712666E+00 -0.29640063367E+00  0.20730688912E+01  0.25500000000E-02 0. -1.
<mgrwt>
<rscale>  0 0.20517703E+01</rscale>
<asrwt>0</asrwt>
<pdfrwt beam="1">0</pdfrwt>
<pdfrwt beam="2">0</pdfrwt>
<totfact> 0.59397024E+11</totfact>
</mgrwt>
</event>
<event>
 4    1  0.3335341E+006  0.2057324E+01  0.7546771E-02  0.2943076E+00
         22   -1    0    0    0    0  0.00000000000E+00  0.00000000000E+00  0.11528895449E+00  0.11528895449E+00  0.00000000000E+00 0.  1.
         22   -1    0    0    0    0 -0.00000000000E+00 -0.00000000000E+00 -0.44366961539E+02  0.44366961539E+02  0.00000000000E+00 0. -1.
          2    1    1    2  501    0 -0.20572346153E+01  0.19009272656E-01 -0.31363779409E+02  0.31431182621E+02  0.25500000000E-02 0. -1.
         -2    1    1    2    0  501  0.20572346153E+01 -0.19009272656E-01 -0.12887893175E+02  0.13051067872E+02  0.25500000000E-02 0.  1.
<mgrwt>
<rscale>  0 0.20573240E+01</rscale>
<asrwt>0</asrwt>
<pdfrwt beam="1">0</pdfrwt>
<pdfrwt beam="2">0</pdfrwt>
<totfact> 0.27798561E+12</totfact>
</mgrwt>
</event>
<event>
 4    1  0.3335341E+006  0.2777545E+01  0.7546771E-02  0.2597524E+00
         22   -1    0    0    0    0  0.00000000000E+00  0.00000000000E+00  0.87798010162E+00  0.87798010162E+00  0.00000000000E+00 0.  1.
         22   -1    0    0    0    0 -0.00000000000E+00 -0.00000000000E+00 -0.11067257851E+02  0.11067257851E+02  0.00000000000E+00 0. -1.
          2    1    1    2  501    0  0.25919890494E+01  0.99816845369E+00 -0.78057228792E+01  0.82851713116E+01  0.25500000000E-02 0. -1.
         -2    1    1    2    0  501 -0.25919890494E+01 -0.99816845369E+00 -0.23835548699E+01  0.36600666407E+01  0.25500000000E-02 0.  1.
<mgrwt>
<rscale>  0 0.27775446E+01</rscale>
<asrwt>0</asrwt>
<pdfrwt beam="1">0</pdfrwt>
<pdfrwt beam="2">0</pdfrwt>
<totfact> 0.16276559E+12</totfact>
</mgrwt>
</event>
<event>
 4    1  0.3335341E+006  0.2903877E+01  0.7546771E-02  0.2553457E+00
         22   -1    0    0    0    0  0.00000000000E+00  0.00000000000E+00  0.10952969935E+02  0.10952969935E+02  0.00000000000E+00 0. -1.
         22   -1    0    0    0    0 -0.00000000000E+00 -0.00000000000E+00 -0.96356339221E+00  0.96356339221E+00  0.00000000000E+00 0.  1.
          2    1    1    2  501    0  0.28754271433E+01 -0.40547716765E+00  0.23233998640E+01  0.37189630840E+01  0.25500000000E-02 0.  1.
         -2    1    1    2    0  501 -0.28754271433E+01  0.40547716765E+00  0.76660066790E+01  0.81975702433E+01  0.25500000000E-02 0. -1.
<mgrwt>
<rscale>  0 0.29038766E+01</rscale>
<asrwt>0</asrwt>
<pdfrwt beam="1">0</pdfrwt>
<pdfrwt beam="2">0</pdfrwt>
<totfact> 0.14824498E+12</totfact>
</mgrwt>
</event>
<event>
 4    1  0.3335341E+006  0.2711630E+01  0.7546771E-02  0.2621994E+00
         22   -1    0    0    0    0  0.00000000000E+00  0.00000000000E+00  0.90986889948E+00  0.90986889948E+00  0.00000000000E+00 0.  1.
         22   -1    0    0    0    0 -0.00000000000E+00 -0.00000000000E+00 -0.96595123564E+01  0.96595123564E+01  0.00000000000E+00 0. -1.
          2    1    1    2  501    0  0.11271355705E+00  0.27092852986E+01 -0.65109264915E+01  0.70530207327E+01  0.25500000000E-02 0.  1.
         -2    1    1    2    0  501 -0.11271355705E+00 -0.27092852986E+01 -0.22387169654E+01  0.35163605232E+01  0.25500000000E-02 0. -1.
<mgrwt>
<rscale>  0 0.27116301E+01</rscale>
<asrwt>0</asrwt>
<pdfrwt beam="1">0</pdfrwt>
<pdfrwt beam="2">0</pdfrwt>
<totfact> 0.18430500E+12</totfact>
</mgrwt>
</event>
<event>
 4    1  0.3335341E+006  0.2324774E+01  0.7546771E-02  0.2791213E+00
         22   -1    0    0    0    0  0.00000000000E+00  0.00000000000E+00  0.28844813186E+00  0.28844813186E+00  0.00000000000E+00 0. -1.
         22   -1    0    0    0    0 -0.00000000000E+00 -0.00000000000E+00 -0.57220916819E+02  0.57220916819E+02  0.00000000000E+00 0.  1.
          2    1    1    2  501    0  0.12782580078E+01 -0.19418093007E+01 -0.52047784699E+02  0.52099678170E+02  0.25500000000E-02 0.  1.
         -2    1    1    2    0  501 -0.12782580078E+01  0.19418093007E+01 -0.48846839881E+01  0.54096867803E+01  0.25500000000E-02 0. -1.
<mgrwt>
<rscale>  0 0.23247738E+01</rscale>
<asrwt>0</asrwt>
<pdfrwt beam="1">0</pdfrwt>
<pdfrwt beam="2">0</pdfrwt>
<totfact> 0.71508231E+11</totfact>
</mgrwt>
</event>
<event>
 4    1  0.3335341E+006  0.2319818E+01  0.7546771E-02  0.2793722E+00
         22   -1    0    0    0    0  0.00000000000E+00  0.00000000000E+00  0.71333316803E+00  0.71333316803E+00  0.00000000000E+00 0. -1.
         22   -1    0    0    0    0 -0.00000000000E+00 -0.00000000000E+00 -0.80670441953E+01  0.80670441953E+01  0.00000000000E+00 0.  1.
          2    1    1    2  501    0 -0.20168912634E+01  0.11461675697E+01 -0.47944784251E+01  0.53262163247E+01  0.25500000000E-02 0. -1.
         -2    1    1    2    0  501  0.20168912634E+01 -0.11461675697E+01 -0.25592326021E+01  0.34541610386E+01  0.25500000000E-02 0.  1.
<mgrwt>
<rscale>  0 0.23198183E+01</rscale>
<asrwt>0</asrwt>
<pdfrwt beam="1">0</pdfrwt>
<pdfrwt beam="2">0</pdfrwt>
<totfact> 0.30205644E+12</totfact>
</mgrwt>
</event>
<event>
 4    1  0.3335341E+006  0.4056268E+01  0.7546771E-02  0.2266666E+00
         22   -1    0    0    0    0  0.00000000000E+00  0.00000000000E+00  0.16795644250E+02  0.16795644250E+02  0.00000000000E+00 0. -1.
         22   -1    0    0    0    0 -0.00000000000E+00 -0.00000000000E+00 -0.18819004424E+01  0.18819004424E+01  0.00000000000E+00 0.  1.
          2    1    1    2  501    0  0.29595964363E+01  0.27738229115E+01  0.99046869171E+00  0.41754448077E+01  0.25500000000E-02 0.  1.
         -2    1    1    2    0  501 -0.29595964363E+01 -0.27738229115E+01  0.13923275116E+02  0.14502099885E+02  0.25500000000E-02 0. -1.
<mgrwt>
<rscale>  0 0.40562681E+01</rscale>
<asrwt>0</asrwt>
<pdfrwt beam="1">0</pdfrwt>
<pdfrwt beam="2">0</pdfrwt>
<totfact> 0.40700650E+11</totfact>
</mgrwt>
</event>
<event>
 4    1  0.3335341E+006  0.2281306E+01  0.7546771E-02  0.2813573E+00
         22   -1    0    0    0    0  0.00000000000E+00  0.00000000000E+00  0.19629093659E+00  0.19629093659E+00  0.00000000000E+00 0. -1.
         22   -1    0    0    0    0 -0.00000000000E+00 -0.00000000000E+00 -0.27700737673E+02  0.27700737673E+02  0.00000000000E+00 0.  1.
          2    1    1    2  501    0 -0.81037009731E+00 -0.21325218162E+01 -0.16639943383E+02  0.16795596782E+02  0.25500000000E-02 0.  1.
         -2    1    1    2    0  501  0.81037009731E+00  0.21325218162E+01 -0.10864503354E+02  0.11101431827E+02  0.25500000000E-02 0. -1.
<mgrwt>
<rscale>  0 0.22813057E+01</rscale>
<asrwt>0</asrwt>
<pdfrwt beam="1">0</pdfrwt>
<pdfrwt beam="2">0</pdfrwt>
<totfact> 0.28207534E+12</totfact>
</mgrwt>
</event>
<event>
 4    1  0.3335341E+006  0.2358407E+01  0.7546771E-02  0.2774448E+00
         22   -1    0    0    0    0  0.00000000000E+00  0.00000000000E+00  0.16871702007E+01  0.16871702007E+01  0.00000000000E+00 0. -1.
         22   -1    0    0    0    0 -0.00000000000E+00 -0.00000000000E+00 -0.63141176912E+01  0.63141176912E+01  0.00000000000E+00 0.  1.
          2    1    1    2  501    0 -0.44219521098E+00  0.23165795833E+01 -0.50790886338E+01  0.55999308409E+01  0.25500000000E-02 0.  1.
         -2    1    1    2    0  501  0.44219521098E+00 -0.23165795833E+01  0.45214114323E+00  0.24013570510E+01  0.25500000000E-02 0. -1.
<mgrwt>
<rscale>  0 0.23584071E+01</rscale>
<asrwt>0</asrwt>
<pdfrwt beam="1">0</pdfrwt>
<pdfrwt beam="2">0</pdfrwt>
<totfact> 0.15126193E+12</totfact>
</mgrwt>
</event>
<event>
 4    1  0.3335341E+006  0.3946508E+01  0.7546771E-02  0.2287638E+00
         22   -1    0    0    0    0  0.00000000000E+00  0.00000000000E+00  0.83297231664E+01  0.83297231664E+01  0.00000000000E+00 0.  1.
         22   -1    0    0    0    0 -0.00000000000E+00 -0.00000000000E+00 -0.20151368539E+01  0.20151368539E+01  0.00000000000E+00 0. -1.
          2    1    1    2  501    0 -0.77520293579E-01  0.39457452918E+01  0.17682067747E+01  0.43245204363E+01  0.25500000000E-02 0.  1.
         -2    1    1    2    0  501  0.77520293579E-01 -0.39457452918E+01  0.45463795377E+01  0.60203395840E+01  0.25500000000E-02 0. -1.
<mgrwt>
<rscale>  0 0.39465075E+01</rscale>
<asrwt>0</asrwt>
<pdfrwt beam="1">0</pdfrwt>
<pdfrwt beam="2">0</pdfrwt>
<totfact> 0.88413870E+11</totfact>
</mgrwt>
</event>
<event>
 4    1  0.3335341E+006  0.2455840E+01  0.7546771E-02  0.2728325E+00
         22   -1    0    0    0    0  0.00000000000E+00  0.00000000000E+00  0.14741998802E+01  0.14741998802E+01  0.00000000000E+00 0.  1.
         22   -1    0    0    0    0 -0.00000000000E+00 -0.00000000000E+00 -0.63489507864E+01  0.63489507864E+01  0.00000000000E+00 0. -1.
          2    1    1    2  501    0  0.19338680068E+01 -0.15137033240E+01 -0.47700010475E+01  0.53650777922E+01  0.25500000000E-02 0. -1.
         -2    1    1    2    0  501 -0.19338680068E+01  0.15137033240E+01 -0.10474985871E+00  0.24580728745E+01  0.25500000000E-02 0.  1.
<mgrwt>
<rscale>  0 0.24558399E+01</rscale>
<asrwt>0</asrwt>
<pdfrwt beam="1">0</pdfrwt>
<pdfrwt beam="2">0</pdfrwt>
<totfact> 0.17554262E+12</totfact>
</mgrwt>
</event>
<event>
 4    1  0.3335341E+006  0.3588202E+01  0.7546771E-02  0.2363677E+00
         22   -1    0    0    0    0  0.00000000000E+00  0.00000000000E+00  0.93713251364E+01  0.93713251364E+01  0.00000000000E+00 0. -1.
         22   -1    0    0    0    0 -0.00000000000E+00 -0.00000000000E+00 -0.14919188490E+01  0.14919188490E+01  0.00000000000E+00 0.  1.
          2    1    1    2  501    0 -0.86553925878E+00  0.34822451799E+01  0.54674305090E+01  0.65397241972E+01  0.25500000000E-02 0. -1.
         -2    1    1    2    0  501  0.86553925878E+00 -0.34822451799E+01  0.24119757784E+01  0.43235197882E+01  0.25500000000E-02 0.  1.
<mgrwt>
<rscale>  0 0.35882024E+01</rscale>
<asrwt>0</asrwt>
<pdfrwt beam="1">0</pdfrwt>
<pdfrwt beam="2">0</pdfrwt>
<totfact> 0.10851747E+12</totfact>
</mgrwt>
</event>
<event>
 4    1  0.3335341E+006  0.2741741E+01  0.7546771E-02  0.2610683E+00
         22   -1    0    0    0    0  0.00000000000E+00  0.00000000000E+00  0.88246129088E+00  0.88246129088E+00  0.00000000000E+00 0.  1.
         22   -1    0    0    0    0 -0.00000000000E+00 -0.00000000000E+00 -0.11751010764E+02  0.11751010764E+02  0.00000000000E+00 0. -1.
          2    1    1    2  501    0  0.13050150029E+01  0.24112384437E+01 -0.87473637174E+01  0.91669795187E+01  0.25500000000E-02 0. -1.
         -2    1    1    2    0  501 -0.13050150029E+01 -0.24112384437E+01 -0.21211857557E+01  0.34664925361E+01  0.25500000000E-02 0.  1.
<mgrwt>
<rscale>  0 0.27417406E+01</rscale>
<asrwt>0</asrwt>
<pdfrwt beam="1">0</pdfrwt>
<pdfrwt beam="2">0</pdfrwt>
<totfact> 0.15043895E+12</totfact>
</mgrwt>
</event>
<event>
 4    1  0.3335341E+006  0.2428230E+01  0.7546771E-02  0.2741042E+00
         22   -1    0    0    0    0  0.00000000000E+00  0.00000000000E+00  0.12795612147E+02  0.12795612147E+02  0.00000000000E+00 0.  1.
         22   -1    0    0    0    0 -0.00000000000E+00 -0.00000000000E+00 -0.63506931300E+00  0.63506931300E+00  0.00000000000E+00 0. -1.
          2    1    1    2  501    0 -0.39265039886E+00 -0.23962722777E+01  0.25625632363E+01  0.35303019711E+01  0.25500000000E-02 0.  1.
         -2    1    1    2    0  501  0.39265039886E+00  0.23962722777E+01  0.95979795977E+01  0.99003794889E+01  0.25500000000E-02 0. -1.
<mgrwt>
<rscale>  0 0.24282302E+01</rscale>
<asrwt>0</asrwt>
<pdfrwt beam="1">0</pdfrwt>
<pdfrwt beam="2">0</pdfrwt>
<totfact> 0.19704874E+12</totfact>
</mgrwt>
</event>
<event>
 4    1  0.3335341E+006  0.2880404E+01  0.7546771E-02  0.2561380E+00
         22   -1    0    0    0    0  0.00000000000E+00  0.00000000000E+00  0.47844649676E+01  0.47844649676E+01  0.00000000000E+00 0. -1.
         22   -1    0    0    0    0 -0.00000000000E+00 -0.00000000000E+00 -0.17340975431E+01  0.17340975431E+01  0.00000000000E+00 0.  1.
          2    1    1    2  501    0  0.28087169205E+01  0.63861518753E+00  0.15234507388E+01  0.32584703088E+01  0.25500000000E-02 0.  1.
         -2    1    1    2    0  501 -0.28087169205E+01 -0.63861518753E+00  0.15269166857E+01  0.32600922019E+01  0.25500000000E-02 0. -1.
<mgrwt>
<rscale>  0 0.28804039E+01</rscale>
<asrwt>0</asrwt>
<pdfrwt beam="1">0</pdfrwt>
<pdfrwt beam="2">0</pdfrwt>
<totfact> 0.20372475E+12</totfact>
</mgrwt>
</event>
<event>
 4    1  0.3335341E+006  0.2091696E+01  0.7546771E-02  0.2921466E+00
         22   -1    0    0    0    0  0.00000000000E+00  0.00000000000E+00  0.12985626242E+02  0.12985626242E+02  0.00000000000E+00 0. -1.
         22   -1    0    0    0    0 -0.00000000000E+00 -0.00000000000E+00 -0.34033948456E+00  0.34033948456E+00  0.00000000000E+00 0.  1.
          2    1    1    2  501    0 -0.18285221068E+01  0.10157236502E+01  0.56553508218E+01  0.60297750413E+01  0.25500000000E-02 0.  1.
         -2    1    1    2    0  501  0.18285221068E+01 -0.10157236502E+01  0.69899359361E+01  0.72961906857E+01  0.25500000000E-02 0. -1.
<mgrwt>
<rscale>  0 0.20916965E+01</rscale>
<asrwt>0</asrwt>
<pdfrwt beam="1">0</pdfrwt>
<pdfrwt beam="2">0</pdfrwt>
<totfact> 0.39114009E+12</totfact>
</mgrwt>
</event>
<event>
 4    1  0.3335341E+006  0.2336630E+01  0.7546771E-02  0.2785252E+00
         22   -1    0    0    0    0  0.00000000000E+00  0.00000000000E+00  0.16134369299E+01  0.16134369299E+01  0.00000000000E+00 0. -1.
         22   -1    0    0    0    0 -0.00000000000E+00 -0.00000000000E+00 -0.61395173268E+01  0.61395173268E+01  0.00000000000E+00 0.  1.
          2    1    1    2  501    0  0.18810471740E+01  0.13861795459E+01 -0.48600479187E+01  0.53925786484E+01  0.25500000000E-02 0.  1.
         -2    1    1    2    0  501 -0.18810471740E+01 -0.13861795459E+01  0.33396752194E+00  0.23603756083E+01  0.25500000000E-02 0. -1.
<mgrwt>
<rscale>  0 0.23366298E+01</rscale>
<asrwt>0</asrwt>
<pdfrwt beam="1">0</pdfrwt>
<pdfrwt beam="2">0</pdfrwt>
<totfact> 0.16467008E+12</totfact>
</mgrwt>
</event>
<event>
 4    1  0.3335341E+006  0.3058443E+01  0.7546771E-02  0.2504028E+00
         22   -1    0    0    0    0  0.00000000000E+00  0.00000000000E+00  0.10742431499E+01  0.10742431499E+01  0.00000000000E+00 0.  1.
         22   -1    0    0    0    0 -0.00000000000E+00 -0.00000000000E+00 -0.10067418927E+02  0.10067418927E+02  0.00000000000E+00 0. -1.
          2    1    1    2  501    0 -0.65083044826E+00 -0.29883918069E+01 -0.24491886377E+01  0.39182390623E+01  0.25500000000E-02 0.  1.
         -2    1    1    2    0  501  0.65083044826E+00  0.29883918069E+01 -0.65439871393E+01  0.72234230144E+01  0.25500000000E-02 0. -1.
<mgrwt>
<rscale>  0 0.30584428E+01</rscale>
<asrwt>0</asrwt>
<pdfrwt beam="1">0</pdfrwt>
<pdfrwt beam="2">0</pdfrwt>
<totfact> 0.14502906E+12</totfact>
</mgrwt>
</event>
<event>
 4    1  0.3335341E+006  0.3031782E+01  0.7546771E-02  0.2512231E+00
         22   -1    0    0    0    0  0.00000000000E+00  0.00000000000E+00  0.65822647337E+00  0.65822647337E+00  0.00000000000E+00 0. -1.
         22   -1    0    0    0    0 -0.00000000000E+00 -0.00000000000E+00 -0.14466170493E+02  0.14466170493E+02  0.00000000000E+00 0.  1.
          2    1    1    2  501    0  0.33710826423E+00  0.30129806654E+01 -0.83124433965E+01  0.88480741517E+01  0.25500000000E-02 0.  1.
         -2    1    1    2    0  501 -0.33710826423E+00 -0.30129806654E+01 -0.54955006231E+01  0.62763228146E+01  0.25500000000E-02 0. -1.
<mgrwt>
<rscale>  0 0.30317818E+01</rscale>
<asrwt>0</asrwt>
<pdfrwt beam="1">0</pdfrwt>
<pdfrwt beam="2">0</pdfrwt>
<totfact> 0.16279468E+12</totfact>
</mgrwt>
</event>
<event>
 4    1  0.3335341E+006  0.2009781E+01  0.7546771E-02  0.2974156E+00
         22   -1    0    0    0    0  0.00000000000E+00  0.00000000000E+00  0.12516175811E+02  0.12516175811E+02  0.00000000000E+00 0. -1.
         22   -1    0    0    0    0 -0.00000000000E+00 -0.00000000000E+00 -0.14047647001E+01  0.14047647001E+01  0.00000000000E+00 0.  1.
          2    1    1    2  501    0  0.20094202927E+01  0.37992800999E-01 -0.55314353268E+00  0.20845113662E+01  0.25500000000E-02 0.  1.
         -2    1    1    2    0  501 -0.20094202927E+01 -0.37992800999E-01  0.11664554643E+02  0.11836429145E+02  0.25500000000E-02 0. -1.
<mgrwt>
<rscale>  0 0.20097810E+01</rscale>
<asrwt>0</asrwt>
<pdfrwt beam="1">0</pdfrwt>
<pdfrwt beam="2">0</pdfrwt>
<totfact> 0.81820960E+11</totfact>
</mgrwt>
</event>
<event>
 4    1  0.3335341E+006  0.2447346E+01  0.7546771E-02  0.2732209E+00
         22   -1    0    0    0    0  0.00000000000E+00  0.00000000000E+00  0.90623836150E+01  0.90623836150E+01  0.00000000000E+00 0.  1.
         22   -1    0    0    0    0 -0.00000000000E+00 -0.00000000000E+00 -0.74198581913E+00  0.74198581913E+00  0.00000000000E+00 0. -1.
          2    1    1    2  501    0  0.24360566253E+01 -0.23478361873E+00  0.25398319654E+01  0.35270735950E+01  0.25500000000E-02 0.  1.
         -2    1    1    2    0  501 -0.24360566253E+01  0.23478361873E+00  0.57805658304E+01  0.62772958391E+01  0.25500000000E-02 0. -1.
<mgrwt>
<rscale>  0 0.24473459E+01</rscale>
<asrwt>0</asrwt>
<pdfrwt beam="1">0</pdfrwt>
<pdfrwt beam="2">0</pdfrwt>
<totfact> 0.25108692E+12</totfact>
</mgrwt>
</event>
<event>
 4    1  0.3335341E+006  0.5354614E+01  0.7546771E-02  0.2082912E+00
         22   -1    0    0    0    0  0.00000000000E+00  0.00000000000E+00  0.13332577385E+02  0.13332577385E+02  0.00000000000E+00 0. -1.
         22   -1    0    0    0    0 -0.00000000000E+00 -0.00000000000E+00 -0.39468425545E+01  0.39468425545E+01  0.00000000000E+00 0.  1.
          2    1    1    2  501    0 -0.46740641817E+01 -0.26124724446E+01 -0.11357714190E+01  0.54737438255E+01  0.25500000000E-02 0. -1.
         -2    1    1    2    0  501  0.46740641817E+01  0.26124724446E+01  0.10521506249E+02  0.11805676114E+02  0.25500000000E-02 0.  1.
<mgrwt>
<rscale>  0 0.53546143E+01</rscale>
<asrwt>0</asrwt>
<pdfrwt beam="1">0</pdfrwt>
<pdfrwt beam="2">0</pdfrwt>
<totfact> 0.22805735E+11</totfact>
</mgrwt>
</event>
<event>
 4    1  0.3335341E+006  0.2286372E+01  0.7546771E-02  0.2810926E+00
         22   -1    0    0    0    0  0.00000000000E+00  0.00000000000E+00  0.11557453159E+02  0.11557453159E+02  0.00000000000E+00 0. -1.
         22   -1    0    0    0    0 -0.00000000000E+00 -0.00000000000E+00 -0.58089849087E+00  0.58089849087E+00  0.00000000000E+00 0.  1.
          2    1    1    2  501    0 -0.14866826536E+01 -0.17370279385E+01  0.26327356751E+01  0.34869463731E+01  0.25500000000E-02 0.  1.
         -2    1    1    2    0  501  0.14866826536E+01  0.17370279385E+01  0.83438189929E+01  0.86514052766E+01  0.25500000000E-02 0. -1.
<mgrwt>
<rscale>  0 0.22863722E+01</rscale>
<asrwt>0</asrwt>
<pdfrwt beam="1">0</pdfrwt>
<pdfrwt beam="2">0</pdfrwt>
<totfact> 0.24679819E+12</totfact>
</mgrwt>
</event>
<event>
 4    1  0.3335341E+006  0.2361423E+01  0.7546771E-02  0.2772967E+00
         22   -1    0    0    0    0  0.00000000000E+00  0.00000000000E+00  0.93905424327E+00  0.93905424327E+00  0.00000000000E+00 0.  1.
         22   -1    0    0    0    0 -0.00000000000E+00 -0.00000000000E+00 -0.79761142350E+01  0.79761142350E+01  0.00000000000E+00 0. -1.
          2    1    1    2  501    0  0.22915957381E+01 -0.56999915277E+00 -0.57717003594E+01  0.62360918533E+01  0.25500000000E-02 0. -1.
         -2    1    1    2    0  501 -0.22915957381E+01  0.56999915277E+00 -0.12653596323E+01  0.26790766250E+01  0.25500000000E-02 0.  1.
<mgrwt>
<rscale>  0 0.23614226E+01</rscale>
<asrwt>0</asrwt>
<pdfrwt beam="1">0</pdfrwt>
<pdfrwt beam="2">0</pdfrwt>
<totfact> 0.22393629E+12</totfact>
</mgrwt>
</event>
<event>
 4    1  0.3335341E+006  0.2218899E+01  0.7546771E-02  0.2847131E+00
         22   -1    0    0    0    0  0.00000000000E+00  0.00000000000E+00  0.33455955778E+01  0.33455955778E+01  0.00000000000E+00 0.  1.
         22   -1    0    0    0    0 -0.00000000000E+00 -0.00000000000E+00 -0.56949219434E+01  0.56949219434E+01  0.00000000000E+00 0. -1.
          2    1    1    2  501    0  0.22037262398E+01  0.25903061025E+00 -0.50673049652E+01  0.55318254048E+01  0.25500000000E-02 0. -1.
         -2    1    1    2    0  501 -0.22037262398E+01 -0.25903061025E+00  0.27179785996E+01  0.35086921164E+01  0.25500000000E-02 0.  1.
<mgrwt>
<rscale>  0 0.22188990E+01</rscale>
<asrwt>0</asrwt>
<pdfrwt beam="1">0</pdfrwt>
<pdfrwt beam="2">0</pdfrwt>
<totfact> 0.77196232E+11</totfact>
</mgrwt>
</event>
<event>
 4    1  0.3335341E+006  0.3764249E+01  0.7546771E-02  0.2324759E+00
         22   -1    0    0    0    0  0.00000000000E+00  0.00000000000E+00  0.28218882767E+02  0.28218882767E+02  0.00000000000E+00 0.  1.
         22   -1    0    0    0    0 -0.00000000000E+00 -0.00000000000E+00 -0.63544193415E+01  0.63544193415E+01  0.00000000000E+00 0. -1.
          2    1    1    2  501    0 -0.37241307726E+01  0.54810038399E+00 -0.56573636974E+01  0.67952435239E+01  0.25500000000E-02 0. -1.
         -2    1    1    2    0  501  0.37241307726E+01 -0.54810038399E+00  0.27521827123E+02  0.27778058585E+02  0.25500000000E-02 0.  1.
<mgrwt>
<rscale>  0 0.37642490E+01</rscale>
<asrwt>0</asrwt>
<pdfrwt beam="1">0</pdfrwt>
<pdfrwt beam="2">0</pdfrwt>
<totfact> 0.50986757E+10</totfact>
</mgrwt>
</event>
<event>
 4    1  0.3335341E+006  0.2436011E+01  0.7546771E-02  0.2737431E+00
         22   -1    0    0    0    0  0.00000000000E+00  0.00000000000E+00  0.17842610292E+01  0.17842610292E+01  0.00000000000E+00 0.  1.
         22   -1    0    0    0    0 -0.00000000000E+00 -0.00000000000E+00 -0.45985327881E+01  0.45985327881E+01  0.00000000000E+00 0. -1.
          2    1    1    2  501    0 -0.20760071009E+01  0.12744941780E+01 -0.30860744796E+01  0.39316667063E+01  0.25500000000E-02 0. -1.
         -2    1    1    2    0  501  0.20760071009E+01 -0.12744941780E+01  0.27180272073E+00  0.24511271110E+01  0.25500000000E-02 0.  1.
<mgrwt>
<rscale>  0 0.24360105E+01</rscale>
<asrwt>0</asrwt>
<pdfrwt beam="1">0</pdfrwt>
<pdfrwt beam="2">0</pdfrwt>
<totfact> 0.20657702E+12</totfact>
</mgrwt>
</event>
<event>
 4    1  0.3335341E+006  0.3514878E+01  0.7546771E-02  0.2380879E+00
         22   -1    0    0    0    0  0.00000000000E+00  0.00000000000E+00  0.11743676930E+01  0.11743676930E+01  0.00000000000E+00 0.  1.
         22   -1    0    0    0    0 -0.00000000000E+00 -0.00000000000E+00 -0.10831307864E+02  0.10831307864E+02  0.00000000000E+00 0. -1.
          2    1    1    2  501    0 -0.14426192777E+01 -0.32051852872E+01 -0.38108200663E+01  0.51842761487E+01  0.25500000000E-02 0.  1.
         -2    1    1    2    0  501  0.14426192777E+01  0.32051852872E+01 -0.58461201042E+01  0.68213994078E+01  0.25500000000E-02 0. -1.
<mgrwt>
<rscale>  0 0.35148783E+01</rscale>
<asrwt>0</asrwt>
<pdfrwt beam="1">0</pdfrwt>
<pdfrwt beam="2">0</pdfrwt>
<totfact> 0.11985225E+12</totfact>
</mgrwt>
</event>
<event>
 4    1  0.3335341E+006  0.3658344E+01  0.7546771E-02  0.2347783E+00
         22   -1    0    0    0    0  0.00000000000E+00  0.00000000000E+00  0.25945549500E+02  0.25945549500E+02  0.00000000000E+00 0. -1.
         22   -1    0    0    0    0 -0.00000000000E+00 -0.00000000000E+00 -0.60037863459E+00  0.60037863459E+00  0.00000000000E+00 0.  1.
          2    1    1    2  501    0  0.23354028179E+01 -0.28159131156E+01  0.76916613787E+01  0.85173431459E+01  0.25500000000E-02 0.  1.
         -2    1    1    2    0  501 -0.23354028179E+01  0.28159131156E+01  0.17653509487E+02  0.18028584989E+02  0.25500000000E-02 0. -1.
<mgrwt>
<rscale>  0 0.36583438E+01</rscale>
<asrwt>0</asrwt>
<pdfrwt beam="1">0</pdfrwt>
<pdfrwt beam="2">0</pdfrwt>
<totfact> 0.87282360E+11</totfact>
</mgrwt>
</event>
<event>
 4    1  0.3335341E+006  0.5166484E+01  0.7546771E-02  0.2103641E+00
         22   -1    0    0    0    0  0.00000000000E+00  0.00000000000E+00  0.21950442304E+01  0.21950442304E+01  0.00000000000E+00 0. -1.
         22   -1    0    0    0    0 -0.00000000000E+00 -0.00000000000E+00 -0.14788828856E+02  0.14788828856E+02  0.00000000000E+00 0.  1.
          2    1    1    2  501    0 -0.50483606731E+01  0.10984571451E+01 -0.98769502982E+01  0.11146600705E+02  0.25500000000E-02 0.  1.
         -2    1    1    2    0  501  0.50483606731E+01 -0.10984571451E+01 -0.27168343270E+01  0.58372723809E+01  0.25500000000E-02 0. -1.
<mgrwt>
<rscale>  0 0.51664843E+01</rscale>
<asrwt>0</asrwt>
<pdfrwt beam="1">0</pdfrwt>
<pdfrwt beam="2">0</pdfrwt>
<totfact> 0.39843497E+11</totfact>
</mgrwt>
</event>
<event>
 4    1  0.3335341E+006  0.2148380E+01  0.7546771E-02  0.2887293E+00
         22   -1    0    0    0    0  0.00000000000E+00  0.00000000000E+00  0.63792518652E+00  0.63792518652E+00  0.00000000000E+00 0. -1.
         22   -1    0    0    0    0 -0.00000000000E+00 -0.00000000000E+00 -0.72397281399E+01  0.72397281399E+01  0.00000000000E+00 0.  1.
          2    1    1    2  501    0  0.21458328988E+01 -0.10455748394E+00 -0.32027584883E+01  0.38565787343E+01  0.25500000000E-02 0.  1.
         -2    1    1    2    0  501 -0.21458328988E+01  0.10455748394E+00 -0.33990444651E+01  0.40210745921E+01  0.25500000000E-02 0. -1.
<mgrwt>
<rscale>  0 0.21483802E+01</rscale>
<asrwt>0</asrwt>
<pdfrwt beam="1">0</pdfrwt>
<pdfrwt beam="2">0</pdfrwt>
<totfact> 0.39038437E+12</totfact>
</mgrwt>
</event>
<event>
 4    1  0.3335341E+006  0.2124480E+01  0.7546771E-02  0.2901486E+00
         22   -1    0    0    0    0  0.00000000000E+00  0.00000000000E+00  0.46365441272E+01  0.46365441272E+01  0.00000000000E+00 0.  1.
         22   -1    0    0    0    0 -0.00000000000E+00 -0.00000000000E+00 -0.97634255159E+00  0.97634255159E+00  0.00000000000E+00 0. -1.
          2    1    1    2  501    0 -0.15454759830E+01  0.14577080835E+01  0.16771834230E+01  0.27067248858E+01  0.25500000000E-02 0. -1.
         -2    1    1    2    0  501  0.15454759830E+01 -0.14577080835E+01  0.19830181526E+01  0.29061617929E+01  0.25500000000E-02 0.  1.
<mgrwt>
<rscale>  0 0.21244800E+01</rscale>
<asrwt>0</asrwt>
<pdfrwt beam="1">0</pdfrwt>
<pdfrwt beam="2">0</pdfrwt>
<totfact> 0.40871125E+12</totfact>
</mgrwt>
</event>
<event>
 4    1  0.3335341E+006  0.2178198E+01  0.7546771E-02  0.2870006E+00
         22   -1    0    0    0    0  0.00000000000E+00  0.00000000000E+00  0.12637856009E+02  0.12637856009E+02  0.00000000000E+00 0. -1.
         22   -1    0    0    0    0 -0.00000000000E+00 -0.00000000000E+00 -0.48679065641E+00  0.48679065641E+00  0.00000000000E+00 0.  1.
          2    1    1    2  501    0 -0.94425822138E+00 -0.19628847559E+01  0.29367206963E+01  0.36563472352E+01  0.25500000000E-02 0.  1.
         -2    1    1    2    0  501  0.94425822138E+00  0.19628847559E+01  0.92143446567E+01  0.94682994306E+01  0.25500000000E-02 0. -1.
<mgrwt>
<rscale>  0 0.21781980E+01</rscale>
<asrwt>0</asrwt>
<pdfrwt beam="1">0</pdfrwt>
<pdfrwt beam="2">0</pdfrwt>
<totfact> 0.27024270E+12</totfact>
</mgrwt>
</event>
<event>
 4    1  0.3335341E+006  0.3166274E+01  0.7546771E-02  0.2472111E+00
         22   -1    0    0    0    0  0.00000000000E+00  0.00000000000E+00  0.64245171243E+00  0.64245171243E+00  0.00000000000E+00 0.  1.
         22   -1    0    0    0    0 -0.00000000000E+00 -0.00000000000E+00 -0.16394918204E+02  0.16394918204E+02  0.00000000000E+00 0. -1.
          2    1    1    2  501    0 -0.29989574535E+01 -0.10156481753E+01 -0.97463975883E+01  0.10247807545E+02  0.25500000000E-02 0.  1.
         -2    1    1    2    0  501  0.29989574535E+01  0.10156481753E+01 -0.60060689030E+01  0.67895623713E+01  0.25500000000E-02 0. -1.
<mgrwt>
<rscale>  0 0.31662744E+01</rscale>
<asrwt>0</asrwt>
<pdfrwt beam="1">0</pdfrwt>
<pdfrwt beam="2">0</pdfrwt>
<totfact> 0.14342256E+12</totfact>
</mgrwt>
</event>
<event>
 4    1  0.3335341E+006  0.3302308E+01  0.7546771E-02  0.2434496E+00
         22   -1    0    0    0    0  0.00000000000E+00  0.00000000000E+00  0.84784814494E+01  0.84784814494E+01  0.00000000000E+00 0. -1.
         22   -1    0    0    0    0 -0.00000000000E+00 -0.00000000000E+00 -0.33639441778E+01  0.33639441778E+01  0.00000000000E+00 0.  1.
          2    1    1    2  501    0 -0.31352905317E+01 -0.10369114287E+01 -0.20962307222E+01  0.39114475290E+01  0.25500000000E-02 0.  1.
         -2    1    1    2    0  501  0.31352905317E+01  0.10369114287E+01  0.72107679939E+01  0.79309780981E+01  0.25500000000E-02 0. -1.
<mgrwt>
<rscale>  0 0.33023081E+01</rscale>
<asrwt>0</asrwt>
<pdfrwt beam="1">0</pdfrwt>
<pdfrwt beam="2">0</pdfrwt>
<totfact> 0.47658857E+11</totfact>
</mgrwt>
</event>
<event>
 4    1  0.3335341E+006  0.2350817E+01  0.7546771E-02  0.2778192E+00
         22   -1    0    0    0    0  0.00000000000E+00  0.00000000000E+00  0.10872294217E+01  0.10872294217E+01  0.00000000000E+00 0. -1.
         22   -1    0    0    0    0 -0.00000000000E+00 -0.00000000000E+00 -0.55707872118E+01  0.55707872118E+01  0.00000000000E+00 0.  1.
          2    1    1    2  501    0 -0.19520049604E+01  0.13099653477E+01 -0.32269042161E+01  0.39923990156E+01  0.25500000000E-02 0.  1.
         -2    1    1    2    0  501  0.19520049604E+01 -0.13099653477E+01 -0.12566535740E+01  0.26656176180E+01  0.25500000000E-02 0. -1.
<mgrwt>
<rscale>  0 0.23508167E+01</rscale>
<asrwt>0</asrwt>
<pdfrwt beam="1">0</pdfrwt>
<pdfrwt beam="2">0</pdfrwt>
<totfact> 0.29081556E+12</totfact>
</mgrwt>
</event>
<event>
 4    1  0.3335341E+006  0.4065420E+01  0.7546771E-02  0.2264961E+00
         22   -1    0    0    0    0  0.00000000000E+00  0.00000000000E+00  0.47291470308E+02  0.47291470308E+02  0.00000000000E+00 0.  1.
         22   -1    0    0    0    0 -0.00000000000E+00 -0.00000000000E+00 -0.51677335930E+00  0.51677335930E+00  0.00000000000E+00 0. -1.
          2    1    1    2  501    0 -0.65257775170E+00  0.40127013995E+01  0.97868063256E+01  0.10597604201E+02  0.25500000000E-02 0. -1.
         -2    1    1    2    0  501  0.65257775170E+00 -0.40127013995E+01  0.36987890623E+02  0.37210639466E+02  0.25500000000E-02 0.  1.
<mgrwt>
<rscale>  0 0.40654196E+01</rscale>
<asrwt>0</asrwt>
<pdfrwt beam="1">0</pdfrwt>
<pdfrwt beam="2">0</pdfrwt>
<totfact> 0.47750536E+11</totfact>
</mgrwt>
</event>
<event>
 4    1  0.3335341E+006  0.2313864E+01  0.7546771E-02  0.2796751E+00
         22   -1    0    0    0    0  0.00000000000E+00  0.00000000000E+00  0.10506613949E+02  0.10506613949E+02  0.00000000000E+00 0. -1.
         22   -1    0    0    0    0 -0.00000000000E+00 -0.00000000000E+00 -0.11319530133E+01  0.11319530133E+01  0.00000000000E+00 0.  1.
          2    1    1    2  501    0 -0.13732218954E+01  0.18623158606E+01  0.37233317479E+00  0.23436290735E+01  0.25500000000E-02 0.  1.
         -2    1    1    2    0  501  0.13732218954E+01 -0.18623158606E+01  0.90023277609E+01  0.92949378887E+01  0.25500000000E-02 0. -1.
<mgrwt>
<rscale>  0 0.23138637E+01</rscale>
<asrwt>0</asrwt>
<pdfrwt beam="1">0</pdfrwt>
<pdfrwt beam="2">0</pdfrwt>
<totfact> 0.12970586E+12</totfact>
</mgrwt>
</event>
<event>
 4    1  0.3335341E+006  0.2819196E+01  0.7546771E-02  0.2582600E+00
         22   -1    0    0    0    0  0.00000000000E+00  0.00000000000E+00  0.27124193398E+00  0.27124193398E+00  0.00000000000E+00 0.  1.
         22   -1    0    0    0    0 -0.00000000000E+00 -0.00000000000E+00 -0.29350709135E+02  0.29350709135E+02  0.00000000000E+00 0. -1.
          2    1    1    2  501    0 -0.15141370977E+01  0.23780770887E+01 -0.15144531413E+02  0.15404697336E+02  0.25500000000E-02 0. -1.
         -2    1    1    2    0  501  0.15141370977E+01 -0.23780770887E+01 -0.13934935788E+02  0.14217253733E+02  0.25500000000E-02 0.  1.
<mgrwt>
<rscale>  0 0.28191964E+01</rscale>
<asrwt>0</asrwt>
<pdfrwt beam="1">0</pdfrwt>
<pdfrwt beam="2">0</pdfrwt>
<totfact> 0.18259787E+12</totfact>
</mgrwt>
</event>
<event>
 4    1  0.3335341E+006  0.4528295E+01  0.7546771E-02  0.2186414E+00
         22   -1    0    0    0    0  0.00000000000E+00  0.00000000000E+00  0.15735577921E+02  0.15735577921E+02  0.00000000000E+00 0.  1.
         22   -1    0    0    0    0 -0.00000000000E+00 -0.00000000000E+00 -0.16516823269E+01  0.16516823269E+01  0.00000000000E+00 0. -1.
          2    1    1    2  501    0 -0.39709912296E+01 -0.21763917637E+01  0.30482641420E+01  0.54586970274E+01  0.25500000000E-02 0. -1.
         -2    1    1    2    0  501  0.39709912296E+01  0.21763917637E+01  0.11035631452E+02  0.11928563221E+02  0.25500000000E-02 0.  1.
<mgrwt>
<rscale>  0 0.45282954E+01</rscale>
<asrwt>0</asrwt>
<pdfrwt beam="1">0</pdfrwt>
<pdfrwt beam="2">0</pdfrwt>
<totfact> 0.51284708E+11</totfact>
</mgrwt>
</event>
<event>
 4    1  0.3335341E+006  0.2166898E+01  0.7546771E-02  0.2876504E+00
         22   -1    0    0    0    0  0.00000000000E+00  0.00000000000E+00  0.63890619973E+01  0.63890619973E+01  0.00000000000E+00 0.  1.
         22   -1    0    0    0    0 -0.00000000000E+00 -0.00000000000E+00 -0.75557548852E+00  0.75557548852E+00  0.00000000000E+00 0. -1.
          2    1    1    2  501    0 -0.43926097788E+00  0.21219072444E+01  0.22260895621E+01  0.31065932791E+01  0.25500000000E-02 0. -1.
         -2    1    1    2    0  501  0.43926097788E+00 -0.21219072444E+01  0.34073969466E+01  0.40380442067E+01  0.25500000000E-02 0.  1.
<mgrwt>
<rscale>  0 0.21668980E+01</rscale>
<asrwt>0</asrwt>
<pdfrwt beam="1">0</pdfrwt>
<pdfrwt beam="2">0</pdfrwt>
<totfact> 0.37405743E+12</totfact>
</mgrwt>
</event>
<event>
 4    1  0.3335341E+006  0.2833338E+01  0.7546771E-02  0.2577623E+00
         22   -1    0    0    0    0  0.00000000000E+00  0.00000000000E+00  0.28177019369E+02  0.28177019369E+02  0.00000000000E+00 0. -1.
         22   -1    0    0    0    0 -0.00000000000E+00 -0.00000000000E+00 -0.33727275377E+00  0.33727275377E+00  0.00000000000E+00 0.  1.
          2    1    1    2  501    0 -0.15800763632E+01 -0.23518409279E+01  0.83020309559E+01  0.87722016370E+01  0.25500000000E-02 0.  1.
         -2    1    1    2    0  501  0.15800763632E+01  0.23518409279E+01  0.19537715660E+02  0.19742090486E+02  0.25500000000E-02 0. -1.
<mgrwt>
<rscale>  0 0.28333379E+01</rscale>
<asrwt>0</asrwt>
<pdfrwt beam="1">0</pdfrwt>
<pdfrwt beam="2">0</pdfrwt>
<totfact> 0.15063266E+12</totfact>
</mgrwt>
</event>
<event>
 4    1  0.3335341E+006  0.2352967E+01  0.7546771E-02  0.2777129E+00
         22   -1    0    0    0    0  0.00000000000E+00  0.00000000000E+00  0.22505925083E+01  0.22505925083E+01  0.00000000000E+00 0. -1.
         22   -1    0    0    0    0 -0.00000000000E+00 -0.00000000000E+00 -0.24762237852E+01  0.24762237852E+01  0.00000000000E+00 0.  1.
          2    1    1    2  501    0 -0.66855894014E+00 -0.22559862141E+01 -0.30413407504E+00  0.23725405988E+01  0.25500000000E-02 0. -1.
         -2    1    1    2    0  501  0.66855894014E+00  0.22559862141E+01  0.78502798208E-01  0.23542756947E+01  0.25500000000E-02 0.  1.
<mgrwt>
<rscale>  0 0.23529665E+01</rscale>
<asrwt>0</asrwt>
<pdfrwt beam="1">0</pdfrwt>
<pdfrwt beam="2">0</pdfrwt>
<totfact> 0.32610401E+12</totfact>
</mgrwt>
</event>
<event>
 4    1  0.3335341E+006  0.2720341E+01  0.7546771E-02  0.2618698E+00
         22   -1    0    0    0    0  0.00000000000E+00  0.00000000000E+00  0.58571377625E+02  0.58571377625E+02  0.00000000000E+00 0. -1.
         22   -1    0    0    0    0 -0.00000000000E+00 -0.00000000000E+00 -0.12692874054E+00  0.12692874054E+00  0.00000000000E+00 0.  1.
          2    1    1    2  501    0  0.64972169781E+00  0.26416117247E+01  0.31210908730E+02  0.31329236841E+02  0.25500000000E-02 0.  1.
         -2    1    1    2    0  501 -0.64972169781E+00 -0.26416117247E+01  0.27233540155E+02  0.27369069525E+02  0.25500000000E-02 0. -1.
<mgrwt>
<rscale>  0 0.27203414E+01</rscale>
<asrwt>0</asrwt>
<pdfrwt beam="1">0</pdfrwt>
<pdfrwt beam="2">0</pdfrwt>
<totfact> 0.17313406E+12</totfact>
</mgrwt>
</event>
<event>
 4    1  0.3335341E+006  0.2325238E+01  0.7546771E-02  0.2790979E+00
         22   -1    0    0    0    0  0.00000000000E+00  0.00000000000E+00  0.11855961235E+02  0.11855961235E+02  0.00000000000E+00 0. -1.
         22   -1    0    0    0    0 -0.00000000000E+00 -0.00000000000E+00 -0.10844412152E+01  0.10844412152E+01  0.00000000000E+00 0.  1.
          2    1    1    2  501    0 -0.12268134252E+01 -0.19752605368E+01  0.46043314838E+00  0.23703861616E+01  0.25500000000E-02 0.  1.
         -2    1    1    2    0  501  0.12268134252E+01  0.19752605368E+01  0.10311086871E+02  0.10570016288E+02  0.25500000000E-02 0. -1.
<mgrwt>
<rscale>  0 0.23252380E+01</rscale>
<asrwt>0</asrwt>
<pdfrwt beam="1">0</pdfrwt>
<pdfrwt beam="2">0</pdfrwt>
<totfact> 0.11761469E+12</totfact>
</mgrwt>
</event>
<event>
 4    1  0.3335341E+006  0.2900201E+01  0.7546771E-02  0.2554690E+00
         22   -1    0    0    0    0  0.00000000000E+00  0.00000000000E+00  0.54261452808E+02  0.54261452808E+02  0.00000000000E+00 0.  1.
         22   -1    0    0    0    0 -0.00000000000E+00 -0.00000000000E+00 -0.17786589574E+00  0.17786589574E+00  0.00000000000E+00 0. -1.
          2    1    1    2  501    0  0.26410404185E+01 -0.11983599852E+01  0.17284755743E+02  0.17526378654E+02  0.25500000000E-02 0.  1.
         -2    1    1    2    0  501 -0.26410404185E+01  0.11983599852E+01  0.36798831170E+02  0.36912940050E+02  0.25500000000E-02 0. -1.
<mgrwt>
<rscale>  0 0.29002013E+01</rscale>
<asrwt>0</asrwt>
<pdfrwt beam="1">0</pdfrwt>
<pdfrwt beam="2">0</pdfrwt>
<totfact> 0.13172175E+12</totfact>
</mgrwt>
</event>
<event>
 4    1  0.3335341E+006  0.2457756E+01  0.7546771E-02  0.2727452E+00
         22   -1    0    0    0    0  0.00000000000E+00  0.00000000000E+00  0.75415003234E+01  0.75415003234E+01  0.00000000000E+00 0. -1.
         22   -1    0    0    0    0 -0.00000000000E+00 -0.00000000000E+00 -0.80364540813E+00  0.80364540813E+00  0.00000000000E+00 0.  1.
          2    1    1    2  501    0 -0.64966041011E+00 -0.23703374553E+01  0.36093834502E+01  0.43667165804E+01  0.25500000000E-02 0. -1.
         -2    1    1    2    0  501  0.64966041011E+00  0.23703374553E+01  0.31284714650E+01  0.39784291511E+01  0.25500000000E-02 0.  1.
<mgrwt>
<rscale>  0 0.24577561E+01</rscale>
<asrwt>0</asrwt>
<pdfrwt beam="1">0</pdfrwt>
<pdfrwt beam="2">0</pdfrwt>
<totfact> 0.28600401E+12</totfact>
</mgrwt>
</event>
<event>
 4    1  0.3335341E+006  0.3341688E+01  0.7546771E-02  0.2424112E+00
         22   -1    0    0    0    0  0.00000000000E+00  0.00000000000E+00  0.38489521058E+01  0.38489521058E+01  0.00000000000E+00 0.  1.
         22   -1    0    0    0    0 -0.00000000000E+00 -0.00000000000E+00 -0.38527916263E+01  0.38527916263E+01  0.00000000000E+00 0. -1.
          2    1    1    2  501    0  0.10803282747E+01 -0.31622403234E+01 -0.19156417377E+01  0.38518259065E+01  0.25500000000E-02 0. -1.
         -2    1    1    2    0  501 -0.10803282747E+01  0.31622403234E+01  0.19118022171E+01  0.38499178256E+01  0.25500000000E-02 0.  1.
<mgrwt>
<rscale>  0 0.33416881E+01</rscale>
<asrwt>0</asrwt>
<pdfrwt beam="1">0</pdfrwt>
<pdfrwt beam="2">0</pdfrwt>
<totfact> 0.10393952E+12</totfact>
</mgrwt>
</event>
<event>
 4    1  0.3335341E+006  0.2430665E+01  0.7546771E-02  0.2739910E+00
         22   -1    0    0    0    0  0.00000000000E+00  0.00000000000E+00  0.86347018757E+01  0.86347018757E+01  0.00000000000E+00 0. -1.
         22   -1    0    0    0    0 -0.00000000000E+00 -0.00000000000E+00 -0.74447426902E+00  0.74447426902E+00  0.00000000000E+00 0.  1.
          2    1    1    2  501    0  0.17043265294E+01 -0.17330305283E+01  0.26110877540E+01  0.35673392735E+01  0.25500000000E-02 0.  1.
         -2    1    1    2    0  501 -0.17043265294E+01  0.17330305283E+01  0.52791398526E+01  0.58118368711E+01  0.25500000000E-02 0. -1.
<mgrwt>
<rscale>  0 0.24306646E+01</rscale>
<asrwt>0</asrwt>
<pdfrwt beam="1">0</pdfrwt>
<pdfrwt beam="2">0</pdfrwt>
<totfact> 0.26514449E+12</totfact>
</mgrwt>
</event>
<event>
 4    1  0.3335341E+006  0.2921259E+01  0.7546771E-02  0.2547664E+00
         22   -1    0    0    0    0  0.00000000000E+00  0.00000000000E+00  0.61708793739E+00  0.61708793739E+00  0.00000000000E+00 0.  1.
         22   -1    0    0    0    0 -0.00000000000E+00 -0.00000000000E+00 -0.22798519793E+02  0.22798519793E+02  0.00000000000E+00 0. -1.
          2    1    1    2  501    0 -0.28129292272E+01 -0.78814721337E+00 -0.18434247590E+02  0.18664277044E+02  0.25500000000E-02 0. -1.
         -2    1    1    2    0  501  0.28129292272E+01  0.78814721337E+00 -0.37471842654E+01  0.47513306860E+01  0.25500000000E-02 0.  1.
<mgrwt>
<rscale>  0 0.29212589E+01</rscale>
<asrwt>0</asrwt>
<pdfrwt beam="1">0</pdfrwt>
<pdfrwt beam="2">0</pdfrwt>
<totfact> 0.99574819E+11</totfact>
</mgrwt>
</event>
<event>
 4    1  0.3335341E+006  0.2169394E+01  0.7546771E-02  0.2875063E+00
         22   -1    0    0    0    0  0.00000000000E+00  0.00000000000E+00  0.23281008708E+01  0.23281008708E+01  0.00000000000E+00 0.  1.
         22   -1    0    0    0    0 -0.00000000000E+00 -0.00000000000E+00 -0.23222903840E+01  0.23222903840E+01  0.00000000000E+00 0. -1.
          2    1    1    2  501    0  0.55835116933E+00  0.20963076901E+01 -0.83390948892E+00  0.23241500593E+01  0.25500000000E-02 0.  1.
         -2    1    1    2    0  501 -0.55835116933E+00 -0.20963076901E+01  0.83971997570E+00  0.23262411956E+01  0.25500000000E-02 0. -1.
<mgrwt>
<rscale>  0 0.21693936E+01</rscale>
<asrwt>0</asrwt>
<pdfrwt beam="1">0</pdfrwt>
<pdfrwt beam="2">0</pdfrwt>
<totfact> 0.33780332E+12</totfact>
</mgrwt>
</event>
<event>
 4    1  0.3335341E+006  0.2078827E+01  0.7546771E-02  0.2929476E+00
         22   -1    0    0    0    0  0.00000000000E+00  0.00000000000E+00  0.48568058952E+02  0.48568058952E+02  0.00000000000E+00 0. -1.
         22   -1    0    0    0    0 -0.00000000000E+00 -0.00000000000E+00 -0.96052023218E+00  0.96052023218E+00  0.00000000000E+00 0.  1.
          2    1    1    2  501    0 -0.14750975268E+00  0.20735848321E+01  0.21438129534E+00  0.20898514362E+01  0.25500000000E-02 0.  1.
         -2    1    1    2    0  501  0.14750975268E+00 -0.20735848321E+01  0.47393157425E+02  0.47438727748E+02  0.25500000000E-02 0. -1.
<mgrwt>
<rscale>  0 0.20788265E+01</rscale>
<asrwt>0</asrwt>
<pdfrwt beam="1">0</pdfrwt>
<pdfrwt beam="2">0</pdfrwt>
<totfact> 0.22807568E+11</totfact>
</mgrwt>
</event>
<event>
 4    1  0.3335341E+006  0.2271404E+01  0.7546771E-02  0.2818780E+00
         22   -1    0    0    0    0  0.00000000000E+00  0.00000000000E+00  0.94804453840E+00  0.94804453840E+00  0.00000000000E+00 0.  1.
         22   -1    0    0    0    0 -0.00000000000E+00 -0.00000000000E+00 -0.22300209577E+02  0.22300209577E+02  0.00000000000E+00 0. -1.
          2    1    1    2  501    0  0.16457111252E+01 -0.15655365108E+01 -0.20782828689E+02  0.20906583759E+02  0.25500000000E-02 0. -1.
         -2    1    1    2    0  501 -0.16457111252E+01  0.15655365108E+01 -0.56933634962E+00  0.23416703559E+01  0.25500000000E-02 0.  1.
<mgrwt>
<rscale>  0 0.22714040E+01</rscale>
<asrwt>0</asrwt>
<pdfrwt beam="1">0</pdfrwt>
<pdfrwt beam="2">0</pdfrwt>
<totfact> 0.62831262E+11</totfact>
</mgrwt>
</event>
<event>
 4    1  0.3335341E+006  0.2257585E+01  0.7546771E-02  0.2826120E+00
         22   -1    0    0    0    0  0.00000000000E+00  0.00000000000E+00  0.35125125796E+01  0.35125125796E+01  0.00000000000E+00 0. -1.
         22   -1    0    0    0    0 -0.00000000000E+00 -0.00000000000E+00 -0.19871082873E+01  0.19871082873E+01  0.00000000000E+00 0.  1.
          2    1    1    2  501    0  0.21591590429E+01 -0.65933132606E+00 -0.66558017390E+00  0.23536544012E+01  0.25500000000E-02 0.  1.
         -2    1    1    2    0  501 -0.21591590429E+01  0.65933132606E+00  0.21909844662E+01  0.31459664657E+01  0.25500000000E-02 0. -1.
<mgrwt>
<rscale>  0 0.22575855E+01</rscale>
<asrwt>0</asrwt>
<pdfrwt beam="1">0</pdfrwt>
<pdfrwt beam="2">0</pdfrwt>
<totfact> 0.25044778E+12</totfact>
</mgrwt>
</event>
<event>
 4    1  0.3335341E+006  0.1036659E+02  0.7546771E-02  0.1763981E+00
         22   -1    0    0    0    0  0.00000000000E+00  0.00000000000E+00  0.27689381894E+02  0.27689381894E+02  0.00000000000E+00 0.  1.
         22   -1    0    0    0    0 -0.00000000000E+00 -0.00000000000E+00 -0.77583469994E+01  0.77583469994E+01  0.00000000000E+00 0. -1.
          2    1    1    2  501    0  0.10341061318E+02 -0.72707609117E+00 -0.25639803032E+01  0.10678960170E+02  0.25500000000E-02 0. -1.
         -2    1    1    2    0  501 -0.10341061318E+02  0.72707609117E+00  0.22495015198E+02  0.24768768724E+02  0.25500000000E-02 0.  1.
<mgrwt>
<rscale>  0 0.10366590E+02</rscale>
<asrwt>0</asrwt>
<pdfrwt beam="1">0</pdfrwt>
<pdfrwt beam="2">0</pdfrwt>
<totfact> 0.41132919E+10</totfact>
</mgrwt>
</event>
<event>
 4    1  0.3335341E+006  0.6466796E+01  0.7546771E-02  0.1980192E+00
         22   -1    0    0    0    0  0.00000000000E+00  0.00000000000E+00  0.37451905218E+02  0.37451905218E+02  0.00000000000E+00 0.  1.
         22   -1    0    0    0    0 -0.00000000000E+00 -0.00000000000E+00 -0.18605254145E+01  0.18605254145E+01  0.00000000000E+00 0. -1.
          2    1    1    2  501    0 -0.62971806850E+01 -0.14713816492E+01  0.53665330308E+01  0.84035190135E+01  0.25500000000E-02 0. -1.
         -2    1    1    2    0  501  0.62971806850E+01  0.14713816492E+01  0.30224846773E+02  0.30908911619E+02  0.25500000000E-02 0.  1.
<mgrwt>
<rscale>  0 0.64667964E+01</rscale>
<asrwt>0</asrwt>
<pdfrwt beam="1">0</pdfrwt>
<pdfrwt beam="2">0</pdfrwt>
<totfact> 0.14983907E+11</totfact>
</mgrwt>
</event>
<event>
 4    1  0.3335341E+006  0.2522669E+01  0.7546771E-02  0.2698620E+00
         22   -1    0    0    0    0  0.00000000000E+00  0.00000000000E+00  0.83159954937E+01  0.83159954937E+01  0.00000000000E+00 0.  1.
         22   -1    0    0    0    0 -0.00000000000E+00 -0.00000000000E+00 -0.30545684812E+01  0.30545684812E+01  0.00000000000E+00 0. -1.
          2    1    1    2  501    0  0.24803364730E+01  0.46019682687E+00 -0.22911517015E+01  0.34078193556E+01  0.25500000000E-02 0. -1.
         -2    1    1    2    0  501 -0.24803364730E+01 -0.46019682687E+00  0.75525787140E+01  0.79627446193E+01  0.25500000000E-02 0.  1.
<mgrwt>
<rscale>  0 0.25226686E+01</rscale>
<asrwt>0</asrwt>
<pdfrwt beam="1">0</pdfrwt>
<pdfrwt beam="2">0</pdfrwt>
<totfact> 0.54609880E+11</totfact>
</mgrwt>
</event>
<event>
 4    1  0.3335341E+006  0.2271929E+01  0.7546771E-02  0.2818503E+00
         22   -1    0    0    0    0  0.00000000000E+00  0.00000000000E+00  0.30814433074E+00  0.30814433074E+00  0.00000000000E+00 0. -1.
         22   -1    0    0    0    0 -0.00000000000E+00 -0.00000000000E+00 -0.24844883053E+02  0.24844883053E+02  0.00000000000E+00 0.  1.
          2    1    1    2  501    0 -0.62736891346E+00  0.21835895893E+01 -0.19446739008E+02  0.19579002012E+02  0.25500000000E-02 0.  1.
         -2    1    1    2    0  501  0.62736891346E+00 -0.21835895893E+01 -0.50899997138E+01  0.55740253710E+01  0.25500000000E-02 0. -1.
<mgrwt>
<rscale>  0 0.22719291E+01</rscale>
<asrwt>0</asrwt>
<pdfrwt beam="1">0</pdfrwt>
<pdfrwt beam="2">0</pdfrwt>
<totfact> 0.19547078E+12</totfact>
</mgrwt>
</event>
<event>
 4    1  0.3335341E+006  0.3704105E+01  0.7546771E-02  0.2337695E+00
         22   -1    0    0    0    0  0.00000000000E+00  0.00000000000E+00  0.24474030765E+01  0.24474030765E+01  0.00000000000E+00 0. -1.
         22   -1    0    0    0    0 -0.00000000000E+00 -0.00000000000E+00 -0.57941622999E+01  0.57941622999E+01  0.00000000000E+00 0.  1.
          2    1    1    2  501    0  0.23235659212E+01 -0.28846887874E+01 -0.24157684465E+01  0.44222541402E+01  0.25500000000E-02 0.  1.
         -2    1    1    2    0  501 -0.23235659212E+01  0.28846887874E+01 -0.93099077677E+00  0.38193112362E+01  0.25500000000E-02 0. -1.
<mgrwt>
<rscale>  0 0.37041051E+01</rscale>
<asrwt>0</asrwt>
<pdfrwt beam="1">0</pdfrwt>
<pdfrwt beam="2">0</pdfrwt>
<totfact> 0.10892641E+12</totfact>
</mgrwt>
</event>
<event>
 4    1  0.3335341E+006  0.4397955E+01  0.7546771E-02  0.2207120E+00
         22   -1    0    0    0    0  0.00000000000E+00  0.00000000000E+00  0.77423749148E+01  0.77423749148E+01  0.00000000000E+00 0. -1.
         22   -1    0    0    0    0 -0.00000000000E+00 -0.00000000000E+00 -0.26055634428E+01  0.26055634428E+01  0.00000000000E+00 0.  1.
          2    1    1    2  501    0 -0.41402109249E+01  0.14834609465E+01  0.15181403831E+01  0.46526078287E+01  0.25500000000E-02 0.  1.
         -2    1    1    2    0  501  0.41402109249E+01 -0.14834609465E+01  0.36186710888E+01  0.56953305289E+01  0.25500000000E-02 0. -1.
<mgrwt>
<rscale>  0 0.43979551E+01</rscale>
<asrwt>0</asrwt>
<pdfrwt beam="1">0</pdfrwt>
<pdfrwt beam="2">0</pdfrwt>
<totfact> 0.71634639E+11</totfact>
</mgrwt>
</event>
<event>
 4    1  0.3335341E+006  0.6049701E+01  0.7546771E-02  0.2015259E+00
         22   -1    0    0    0    0  0.00000000000E+00  0.00000000000E+00  0.16059435587E+01  0.16059435587E+01  0.00000000000E+00 0.  1.
         22   -1    0    0    0    0 -0.00000000000E+00 -0.00000000000E+00 -0.30618669047E+02  0.30618669047E+02  0.00000000000E+00 0. -1.
          2    1    1    2  501    0 -0.39048310045E+01  0.46207322009E+01 -0.22653752068E+02  0.23447630168E+02  0.25500000000E-02 0. -1.
         -2    1    1    2    0  501  0.39048310045E+01 -0.46207322009E+01 -0.63589734202E+01  0.87769824375E+01  0.25500000000E-02 0.  1.
<mgrwt>
<rscale>  0 0.60497006E+01</rscale>
<asrwt>0</asrwt>
<pdfrwt beam="1">0</pdfrwt>
<pdfrwt beam="2">0</pdfrwt>
<totfact> 0.22998030E+11</totfact>
</mgrwt>
</event>
<event>
 4    1  0.3335341E+006  0.2798556E+01  0.7546771E-02  0.2589945E+00
         22   -1    0    0    0    0  0.00000000000E+00  0.00000000000E+00  0.15055509054E+02  0.15055509054E+02  0.00000000000E+00 0. -1.
         22   -1    0    0    0    0 -0.00000000000E+00 -0.00000000000E+00 -0.68628675764E+00  0.68628675764E+00  0.00000000000E+00 0.  1.
          2    1    1    2  501    0 -0.25958414367E+01 -0.10457140842E+01  0.33126108900E+01  0.43365087480E+01  0.25500000000E-02 0.  1.
         -2    1    1    2    0  501  0.25958414367E+01  0.10457140842E+01  0.11056611406E+02  0.11405287064E+02  0.25500000000E-02 0. -1.
<mgrwt>
<rscale>  0 0.27985563E+01</rscale>
<asrwt>0</asrwt>
<pdfrwt beam="1">0</pdfrwt>
<pdfrwt beam="2">0</pdfrwt>
<totfact> 0.14782397E+12</totfact>
</mgrwt>
</event>
<event>
 4    1  0.3335341E+006  0.2468200E+01  0.7546771E-02  0.2722718E+00
         22   -1    0    0    0    0  0.00000000000E+00  0.00000000000E+00  0.30415824569E+01  0.30415824569E+01  0.00000000000E+00 0. -1.
         22   -1    0    0    0    0 -0.00000000000E+00 -0.00000000000E+00 -0.22801988604E+01  0.22801988604E+01  0.00000000000E+00 0.  1.
          2    1    1    2  501    0  0.11668469644E+01  0.21749650409E+01 -0.54722294500E+00  0.25281345339E+01  0.25500000000E-02 0.  1.
         -2    1    1    2    0  501 -0.11668469644E+01 -0.21749650409E+01  0.13086065414E+01  0.27936467834E+01  0.25500000000E-02 0. -1.
<mgrwt>
<rscale>  0 0.24682000E+01</rscale>
<asrwt>0</asrwt>
<pdfrwt beam="1">0</pdfrwt>
<pdfrwt beam="2">0</pdfrwt>
<totfact> 0.25273369E+12</totfact>
</mgrwt>
</event>
<event>
 4    1  0.3335341E+006  0.2162885E+01  0.7546771E-02  0.2878827E+00
         22   -1    0    0    0    0  0.00000000000E+00  0.00000000000E+00  0.59176075587E+01  0.59176075587E+01  0.00000000000E+00 0.  1.
         22   -1    0    0    0    0 -0.00000000000E+00 -0.00000000000E+00 -0.88593826546E+00  0.88593826546E+00  0.00000000000E+00 0. -1.
          2    1    1    2  501    0  0.14336799465E+01  0.16194524458E+01  0.13995187163E+01  0.25761839128E+01  0.25500000000E-02 0. -1.
         -2    1    1    2    0  501 -0.14336799465E+01 -0.16194524458E+01  0.36321505770E+01  0.42273619113E+01  0.25500000000E-02 0.  1.
<mgrwt>
<rscale>  0 0.21628849E+01</rscale>
<asrwt>0</asrwt>
<pdfrwt beam="1">0</pdfrwt>
<pdfrwt beam="2">0</pdfrwt>
<totfact> 0.34192412E+12</totfact>
</mgrwt>
</event>
<event>
 4    1  0.3335341E+006  0.4004435E+01  0.7546771E-02  0.2276448E+00
         22   -1    0    0    0    0  0.00000000000E+00  0.00000000000E+00  0.68978141026E+01  0.68978141026E+01  0.00000000000E+00 0.  1.
         22   -1    0    0    0    0 -0.00000000000E+00 -0.00000000000E+00 -0.25879913037E+01  0.25879913037E+01  0.00000000000E+00 0. -1.
          2    1    1    2  501    0  0.23178404713E+01  0.32654411078E+01  0.36676481360E+01  0.54302062052E+01  0.25500000000E-02 0.  1.
         -2    1    1    2    0  501 -0.23178404713E+01 -0.32654411078E+01  0.64217466292E+00  0.40555992010E+01  0.25500000000E-02 0. -1.
<mgrwt>
<rscale>  0 0.40044346E+01</rscale>
<asrwt>0</asrwt>
<pdfrwt beam="1">0</pdfrwt>
<pdfrwt beam="2">0</pdfrwt>
<totfact> 0.82914444E+11</totfact>
</mgrwt>
</event>
<event>
 4    1  0.3335341E+006  0.2191742E+01  0.7546771E-02  0.2862304E+00
         22   -1    0    0    0    0  0.00000000000E+00  0.00000000000E+00  0.11065787808E+00  0.11065787808E+00  0.00000000000E+00 0.  1.
         22   -1    0    0    0    0 -0.00000000000E+00 -0.00000000000E+00 -0.51557659271E+02  0.51557659271E+02  0.00000000000E+00 0. -1.
          2    1    1    2  501    0  0.85570925121E+00  0.20177924123E+01 -0.35992938731E+02  0.36059608560E+02  0.25500000000E-02 0. -1.
         -2    1    1    2    0  501 -0.85570925121E+00 -0.20177924123E+01 -0.15454062663E+02  0.15608708589E+02  0.25500000000E-02 0.  1.
<mgrwt>
<rscale>  0 0.21917416E+01</rscale>
<asrwt>0</asrwt>
<pdfrwt beam="1">0</pdfrwt>
<pdfrwt beam="2">0</pdfrwt>
<totfact> 0.23879458E+12</totfact>
</mgrwt>
</event>
<event>
 4    1  0.3335341E+006  0.2311646E+01  0.7546771E-02  0.2797882E+00
         22   -1    0    0    0    0  0.00000000000E+00  0.00000000000E+00  0.25133591171E+01  0.25133591171E+01  0.00000000000E+00 0. -1.
         22   -1    0    0    0    0 -0.00000000000E+00 -0.00000000000E+00 -0.38327706419E+01  0.38327706419E+01  0.00000000000E+00 0.  1.
          2    1    1    2  501    0  0.22775648638E+01  0.39547213511E+00 -0.27770656531E+01  0.36132810660E+01  0.25500000000E-02 0.  1.
         -2    1    1    2    0  501 -0.22775648638E+01 -0.39547213511E+00  0.14576541282E+01  0.27328486929E+01  0.25500000000E-02 0. -1.
<mgrwt>
<rscale>  0 0.23116458E+01</rscale>
<asrwt>0</asrwt>
<pdfrwt beam="1">0</pdfrwt>
<pdfrwt beam="2">0</pdfrwt>
<totfact> 0.17212434E+12</totfact>
</mgrwt>
</event>
<event>
 4    1  0.3335341E+006  0.2188307E+01  0.7546771E-02  0.2864249E+00
         22   -1    0    0    0    0  0.00000000000E+00  0.00000000000E+00  0.14680851470E+00  0.14680851470E+00  0.00000000000E+00 0. -1.
         22   -1    0    0    0    0 -0.00000000000E+00 -0.00000000000E+00 -0.41159001471E+02  0.41159001471E+02  0.00000000000E+00 0.  1.
          2    1    1    2  501    0 -0.15794582373E+01  0.15145927362E+01 -0.29913900515E+02  0.29993834867E+02  0.25500000000E-02 0.  1.
         -2    1    1    2    0  501  0.15794582373E+01 -0.15145927362E+01 -0.11098292441E+02  0.11311975119E+02  0.25500000000E-02 0. -1.
<mgrwt>
<rscale>  0 0.21883066E+01</rscale>
<asrwt>0</asrwt>
<pdfrwt beam="1">0</pdfrwt>
<pdfrwt beam="2">0</pdfrwt>
<totfact> 0.23443321E+12</totfact>
</mgrwt>
</event>
<event>
 4    1  0.3335341E+006  0.2501864E+01  0.7546771E-02  0.2707709E+00
         22   -1    0    0    0    0  0.00000000000E+00  0.00000000000E+00  0.95035545860E+01  0.95035545860E+01  0.00000000000E+00 0.  1.
         22   -1    0    0    0    0 -0.00000000000E+00 -0.00000000000E+00 -0.66006699727E+00  0.66006699727E+00  0.00000000000E+00 0. -1.
          2    1    1    2  501    0 -0.58512783854E+00 -0.24324768658E+01  0.41846205401E+01  0.48754870380E+01  0.25500000000E-02 0. -1.
         -2    1    1    2    0  501  0.58512783854E+00  0.24324768658E+01  0.46588670486E+01  0.52881345453E+01  0.25500000000E-02 0.  1.
<mgrwt>
<rscale>  0 0.25018643E+01</rscale>
<asrwt>0</asrwt>
<pdfrwt beam="1">0</pdfrwt>
<pdfrwt beam="2">0</pdfrwt>
<totfact> 0.27075018E+12</totfact>
</mgrwt>
</event>
<event>
 4    1  0.3335341E+006  0.2296406E+01  0.7546771E-02  0.2805715E+00
         22   -1    0    0    0    0  0.00000000000E+00  0.00000000000E+00  0.24227718990E+02  0.24227718990E+02  0.00000000000E+00 0. -1.
         22   -1    0    0    0    0 -0.00000000000E+00 -0.00000000000E+00 -0.40714815787E+00  0.40714815787E+00  0.00000000000E+00 0.  1.
          2    1    1    2  501    0 -0.22452222120E+01 -0.48213010471E+00  0.35073397277E+01  0.41922441111E+01  0.25500000000E-02 0.  1.
         -2    1    1    2    0  501  0.22452222120E+01  0.48213010471E+00  0.20313231104E+02  0.20442623036E+02  0.25500000000E-02 0. -1.
<mgrwt>
<rscale>  0 0.22964056E+01</rscale>
<asrwt>0</asrwt>
<pdfrwt beam="1">0</pdfrwt>
<pdfrwt beam="2">0</pdfrwt>
<totfact> 0.14752949E+12</totfact>
</mgrwt>
</event>
<event>
 4    1  0.3335341E+006  0.2699753E+01  0.7546771E-02  0.2626520E+00
         22   -1    0    0    0    0  0.00000000000E+00  0.00000000000E+00  0.71638163582E+00  0.71638163582E+00  0.00000000000E+00 0.  1.
         22   -1    0    0    0    0 -0.00000000000E+00 -0.00000000000E+00 -0.20314567960E+02  0.20314567960E+02  0.00000000000E+00 0. -1.
          2    1    1    2  501    0  0.21216023524E+01  0.16695701075E+01 -0.17228433170E+02  0.17438680480E+02  0.25500000000E-02 0. -1.
         -2    1    1    2    0  501 -0.21216023524E+01 -0.16695701075E+01 -0.23697531537E+01  0.35922691154E+01  0.25500000000E-02 0.  1.
<mgrwt>
<rscale>  0 0.26997532E+01</rscale>
<asrwt>0</asrwt>
<pdfrwt beam="1">0</pdfrwt>
<pdfrwt beam="2">0</pdfrwt>
<totfact> 0.97130290E+11</totfact>
</mgrwt>
</event>
<event>
 4    1  0.3335341E+006  0.2004323E+01  0.7546771E-02  0.2977816E+00
         22   -1    0    0    0    0  0.00000000000E+00  0.00000000000E+00  0.27468598101E+00  0.27468598101E+00  0.00000000000E+00 0. -1.
         22   -1    0    0    0    0 -0.00000000000E+00 -0.00000000000E+00 -0.33600191312E+02  0.33600191312E+02  0.00000000000E+00 0.  1.
          2    1    1    2  501    0  0.18828886819E+01 -0.68704792264E+00 -0.29391004144E+02  0.29459267400E+02  0.25500000000E-02 0.  1.
         -2    1    1    2    0  501 -0.18828886819E+01  0.68704792264E+00 -0.39345011871E+01  0.44156098934E+01  0.25500000000E-02 0. -1.
<mgrwt>
<rscale>  0 0.20043231E+01</rscale>
<asrwt>0</asrwt>
<pdfrwt beam="1">0</pdfrwt>
<pdfrwt beam="2">0</pdfrwt>
<totfact> 0.15144596E+12</totfact>
</mgrwt>
</event>
<event>
 4    1  0.3335341E+006  0.3350666E+01  0.7546771E-02  0.2421775E+00
         22   -1    0    0    0    0  0.00000000000E+00  0.00000000000E+00  0.20188271110E+00  0.20188271110E+00  0.00000000000E+00 0.  1.
         22   -1    0    0    0    0 -0.00000000000E+00 -0.00000000000E+00 -0.56924401931E+02  0.56924401931E+02  0.00000000000E+00 0. -1.
          2    1    1    2  501    0 -0.32577655466E+01  0.78352842716E+00 -0.32699426521E+02  0.32870647308E+02  0.25500000000E-02 0.  1.
         -2    1    1    2    0  501  0.32577655466E+01 -0.78352842716E+00 -0.24023092698E+02  0.24255637333E+02  0.25500000000E-02 0. -1.
<mgrwt>
<rscale>  0 0.33506656E+01</rscale>
<asrwt>0</asrwt>
<pdfrwt beam="1">0</pdfrwt>
<pdfrwt beam="2">0</pdfrwt>
<totfact> 0.10731606E+12</totfact>
</mgrwt>
</event>
<event>
 4    1  0.3335341E+006  0.3795060E+01  0.7546771E-02  0.2318269E+00
         22   -1    0    0    0    0  0.00000000000E+00  0.00000000000E+00  0.33354453813E+02  0.33354453813E+02  0.00000000000E+00 0.  1.
         22   -1    0    0    0    0 -0.00000000000E+00 -0.00000000000E+00 -0.73755860209E+00  0.73755860209E+00  0.00000000000E+00 0. -1.
          2    1    1    2  501    0 -0.33466076159E+01 -0.17896061887E+01  0.53332294782E+01  0.65456715481E+01  0.25500000000E-02 0. -1.
         -2    1    1    2    0  501  0.33466076159E+01  0.17896061887E+01  0.27283665733E+02  0.27546340867E+02  0.25500000000E-02 0.  1.
<mgrwt>
<rscale>  0 0.37950599E+01</rscale>
<asrwt>0</asrwt>
<pdfrwt beam="1">0</pdfrwt>
<pdfrwt beam="2">0</pdfrwt>
<totfact> 0.50197678E+11</totfact>
</mgrwt>
</event>
<event>
 4    1  0.3335341E+006  0.2872607E+01  0.7546771E-02  0.2564037E+00
         22   -1    0    0    0    0  0.00000000000E+00  0.00000000000E+00  0.21017117691E+02  0.21017117691E+02  0.00000000000E+00 0. -1.
         22   -1    0    0    0    0 -0.00000000000E+00 -0.00000000000E+00 -0.42145920056E+00  0.42145920056E+00  0.00000000000E+00 0.  1.
          2    1    1    2  501    0  0.28719789099E+01 -0.60004290679E-01  0.74941164069E+01  0.80258115226E+01  0.25500000000E-02 0.  1.
         -2    1    1    2    0  501 -0.28719789099E+01  0.60004290679E-01  0.13101542084E+02  0.13412765369E+02  0.25500000000E-02 0. -1.
<mgrwt>
<rscale>  0 0.28726068E+01</rscale>
<asrwt>0</asrwt>
<pdfrwt beam="1">0</pdfrwt>
<pdfrwt beam="2">0</pdfrwt>
<totfact> 0.16961330E+12</totfact>
</mgrwt>
</event>
<event>
 4    1  0.3335341E+006  0.2484038E+01  0.7546771E-02  0.2715609E+00
         22   -1    0    0    0    0  0.00000000000E+00  0.00000000000E+00  0.75274424272E+00  0.75274424272E+00  0.00000000000E+00 0.  1.
         22   -1    0    0    0    0 -0.00000000000E+00 -0.00000000000E+00 -0.34635507793E+02  0.34635507793E+02  0.00000000000E+00 0. -1.
          2    1    1    2  501    0  0.19170639913E+01  0.15796525751E+01 -0.32400497198E+02  0.32495579112E+02  0.25500000000E-02 0. -1.
         -2    1    1    2    0  501 -0.19170639913E+01 -0.15796525751E+01 -0.14822663520E+01  0.28926729241E+01  0.25500000000E-02 0.  1.
<mgrwt>
<rscale>  0 0.24840377E+01</rscale>
<asrwt>0</asrwt>
<pdfrwt beam="1">0</pdfrwt>
<pdfrwt beam="2">0</pdfrwt>
<totfact> 0.46729708E+11</totfact>
</mgrwt>
</event>
<event>
 4    1  0.3335341E+006  0.2530410E+01  0.7546771E-02  0.2695273E+00
         22   -1    0    0    0    0  0.00000000000E+00  0.00000000000E+00  0.66935437761E+01  0.66935437761E+01  0.00000000000E+00 0.  1.
         22   -1    0    0    0    0 -0.00000000000E+00 -0.00000000000E+00 -0.32357492189E+01  0.32357492189E+01  0.00000000000E+00 0. -1.
          2    1    1    2  501    0 -0.23810930581E+01  0.85636667765E+00 -0.24377647154E+01  0.35136407540E+01  0.25500000000E-02 0. -1.
         -2    1    1    2    0  501  0.23810930581E+01 -0.85636667765E+00  0.58955592727E+01  0.64156522410E+01  0.25500000000E-02 0.  1.
<mgrwt>
<rscale>  0 0.25304100E+01</rscale>
<asrwt>0</asrwt>
<pdfrwt beam="1">0</pdfrwt>
<pdfrwt beam="2">0</pdfrwt>
<totfact> 0.66219740E+11</totfact>
</mgrwt>
</event>
<event>
 4    1  0.3335341E+006  0.2046814E+01  0.7546771E-02  0.2949825E+00
         22   -1    0    0    0    0  0.00000000000E+00  0.00000000000E+00  0.43161645372E+01  0.43161645372E+01  0.00000000000E+00 0. -1.
         22   -1    0    0    0    0 -0.00000000000E+00 -0.00000000000E+00 -0.13371478254E+01  0.13371478254E+01  0.00000000000E+00 0.  1.
          2    1    1    2  501    0 -0.11220382771E+01  0.17118618877E+01  0.96364139645E-02  0.20468366766E+01  0.25500000000E-02 0.  1.
         -2    1    1    2    0  501  0.11220382771E+01 -0.17118618877E+01  0.29693802979E+01  0.36064756860E+01  0.25500000000E-02 0. -1.
<mgrwt>
<rscale>  0 0.20468140E+01</rscale>
<asrwt>0</asrwt>
<pdfrwt beam="1">0</pdfrwt>
<pdfrwt beam="2">0</pdfrwt>
<totfact> 0.31028939E+12</totfact>
</mgrwt>
</event>
<event>
 4    1  0.3335341E+006  0.2172633E+01  0.7546771E-02  0.2873198E+00
         22   -1    0    0    0    0  0.00000000000E+00  0.00000000000E+00  0.21334065531E+00  0.21334065531E+00  0.00000000000E+00 0. -1.
         22   -1    0    0    0    0 -0.00000000000E+00 -0.00000000000E+00 -0.22629629248E+02  0.22629629248E+02  0.00000000000E+00 0.  1.
          2    1    1    2  501    0  0.86566157855E+00  0.19927266270E+01 -0.95039502036E+01  0.97491233121E+01  0.25500000000E-02 0. -1.
         -2    1    1    2    0  501 -0.86566157855E+00 -0.19927266270E+01 -0.12912338389E+02  0.13093846591E+02  0.25500000000E-02 0.  1.
<mgrwt>
<rscale>  0 0.21726334E+01</rscale>
<asrwt>0</asrwt>
<pdfrwt beam="1">0</pdfrwt>
<pdfrwt beam="2">0</pdfrwt>
<totfact> 0.33171919E+12</totfact>
</mgrwt>
</event>
<event>
 4    1  0.3335341E+006  0.4311176E+01  0.7546771E-02  0.2221486E+00
         22   -1    0    0    0    0  0.00000000000E+00  0.00000000000E+00  0.66716161389E+01  0.66716161389E+01  0.00000000000E+00 0.  1.
         22   -1    0    0    0    0 -0.00000000000E+00 -0.00000000000E+00 -0.27918394565E+01  0.27918394565E+01  0.00000000000E+00 0. -1.
          2    1    1    2  501    0 -0.31658258730E+01 -0.29263931400E+01  0.21587363900E+01  0.48214499450E+01  0.25500000000E-02 0.  1.
         -2    1    1    2    0  501  0.31658258730E+01  0.29263931400E+01  0.17210402924E+01  0.46420056504E+01  0.25500000000E-02 0. -1.
<mgrwt>
<rscale>  0 0.43111758E+01</rscale>
<asrwt>0</asrwt>
<pdfrwt beam="1">0</pdfrwt>
<pdfrwt beam="2">0</pdfrwt>
<totfact> 0.78989317E+11</totfact>
</mgrwt>
</event>
<event>
 4    1  0.3335341E+006  0.2670708E+01  0.7546771E-02  0.2637741E+00
         22   -1    0    0    0    0  0.00000000000E+00  0.00000000000E+00  0.80445289528E+02  0.80445289528E+02  0.00000000000E+00 0.  1.
         22   -1    0    0    0    0 -0.00000000000E+00 -0.00000000000E+00 -0.12218134651E+01  0.12218134651E+01  0.00000000000E+00 0. -1.
          2    1    1    2  501    0 -0.74809444548E+00 -0.25637915191E+01  0.28769931616E+00  0.26861589029E+01  0.25500000000E-02 0. -1.
         -2    1    1    2    0  501  0.74809444548E+00  0.25637915191E+01  0.78935776747E+02  0.78980944090E+02  0.25500000000E-02 0.  1.
<mgrwt>
<rscale>  0 0.26707075E+01</rscale>
<asrwt>0</asrwt>
<pdfrwt beam="1">0</pdfrwt>
<pdfrwt beam="2">0</pdfrwt>
<totfact> 0.87922368E+10</totfact>
</mgrwt>
</event>
<event>
 4    1  0.3335341E+006  0.3368825E+01  0.7546771E-02  0.2417081E+00
         22   -1    0    0    0    0  0.00000000000E+00  0.00000000000E+00  0.38932486344E+02  0.38932486344E+02  0.00000000000E+00 0. -1.
         22   -1    0    0    0    0 -0.00000000000E+00 -0.00000000000E+00 -0.29706941634E+00  0.29706941634E+00  0.00000000000E+00 0.  1.
          2    1    1    2  501    0  0.21982220565E+00 -0.33616442058E+01  0.22002426441E+02  0.22258835310E+02  0.25500000000E-02 0.  1.
         -2    1    1    2    0  501 -0.21982220565E+00  0.33616442058E+01  0.16632990487E+02  0.16970720451E+02  0.25500000000E-02 0. -1.
<mgrwt>
<rscale>  0 0.33688247E+01</rscale>
<asrwt>0</asrwt>
<pdfrwt beam="1">0</pdfrwt>
<pdfrwt beam="2">0</pdfrwt>
<totfact> 0.11474308E+12</totfact>
</mgrwt>
</event>
<event>
 4    1  0.3335341E+006  0.2976681E+01  0.7546771E-02  0.2529601E+00
         22   -1    0    0    0    0  0.00000000000E+00  0.00000000000E+00  0.82418129739E+00  0.82418129739E+00  0.00000000000E+00 0. -1.
         22   -1    0    0    0    0 -0.00000000000E+00 -0.00000000000E+00 -0.11500908977E+02  0.11500908977E+02  0.00000000000E+00 0.  1.
          2    1    1    2  501    0  0.29325942175E+01 -0.51040512476E+00 -0.69121619879E+01  0.75258628798E+01  0.25500000000E-02 0.  1.
         -2    1    1    2    0  501 -0.29325942175E+01  0.51040512476E+00 -0.37645656919E+01  0.47992273948E+01  0.25500000000E-02 0. -1.
<mgrwt>
<rscale>  0 0.29766808E+01</rscale>
<asrwt>0</asrwt>
<pdfrwt beam="1">0</pdfrwt>
<pdfrwt beam="2">0</pdfrwt>
<totfact> 0.16692969E+12</totfact>
</mgrwt>
</event>
<event>
 4    1  0.3335341E+006  0.2721836E+01  0.7546771E-02  0.2618135E+00
         22   -1    0    0    0    0  0.00000000000E+00  0.00000000000E+00  0.27459751514E+00  0.27459751514E+00  0.00000000000E+00 0.  1.
         22   -1    0    0    0    0 -0.00000000000E+00 -0.00000000000E+00 -0.32249443581E+02  0.32249443581E+02  0.00000000000E+00 0. -1.
          2    1    1    2  501    0 -0.26762085036E+01  0.49627687780E+00 -0.22561481324E+02  0.22725070489E+02  0.25500000000E-02 0. -1.
         -2    1    1    2    0  501  0.26762085036E+01 -0.49627687780E+00 -0.94133647425E+01  0.97989706078E+01  0.25500000000E-02 0.  1.
<mgrwt>
<rscale>  0 0.27218356E+01</rscale>
<asrwt>0</asrwt>
<pdfrwt beam="1">0</pdfrwt>
<pdfrwt beam="2">0</pdfrwt>
<totfact> 0.15970103E+12</totfact>
</mgrwt>
</event>
<event>
 4    1  0.3335341E+006  0.2212780E+01  0.7546771E-02  0.2850519E+00
         22   -1    0    0    0    0  0.00000000000E+00  0.00000000000E+00  0.44117714176E+01  0.44117714176E+01  0.00000000000E+00 0. -1.
         22   -1    0    0    0    0 -0.00000000000E+00 -0.00000000000E+00 -0.21579334142E+01  0.21579334142E+01  0.00000000000E+00 0.  1.
          2    1    1    2  501    0  0.21227389356E+01 -0.62479346371E+00 -0.11623417445E+01  0.24994864061E+01  0.25500000000E-02 0.  1.
         -2    1    1    2    0  501 -0.21227389356E+01  0.62479346371E+00  0.34161797478E+01  0.40702184257E+01  0.25500000000E-02 0. -1.
<mgrwt>
<rscale>  0 0.22127797E+01</rscale>
<asrwt>0</asrwt>
<pdfrwt beam="1">0</pdfrwt>
<pdfrwt beam="2">0</pdfrwt>
<totfact> 0.17409299E+12</totfact>
</mgrwt>
</event>
<event>
 4    1  0.3335341E+006  0.2089388E+01  0.7546771E-02  0.2922895E+00
         22   -1    0    0    0    0  0.00000000000E+00  0.00000000000E+00  0.57969329094E+01  0.57969329094E+01  0.00000000000E+00 0. -1.
         22   -1    0    0    0    0 -0.00000000000E+00 -0.00000000000E+00 -0.75369372734E+00  0.75369372734E+00  0.00000000000E+00 0.  1.
          2    1    1    2  501    0 -0.15729804872E+01  0.13752337183E+01  0.24279939103E+01  0.32032321683E+01  0.25500000000E-02 0. -1.
         -2    1    1    2    0  501  0.15729804872E+01 -0.13752337183E+01  0.26152452717E+01  0.33473944684E+01  0.25500000000E-02 0.  1.
<mgrwt>
<rscale>  0 0.20893879E+01</rscale>
<asrwt>0</asrwt>
<pdfrwt beam="1">0</pdfrwt>
<pdfrwt beam="2">0</pdfrwt>
<totfact> 0.42117583E+12</totfact>
</mgrwt>
</event>
<event>
 4    1  0.3335341E+006  0.2639115E+01  0.7546771E-02  0.2650204E+00
         22   -1    0    0    0    0  0.00000000000E+00  0.00000000000E+00  0.14038353988E+01  0.14038353988E+01  0.00000000000E+00 0.  1.
         22   -1    0    0    0    0 -0.00000000000E+00 -0.00000000000E+00 -0.50911879092E+01  0.50911879092E+01  0.00000000000E+00 0. -1.
          2    1    1    2  501    0 -0.25799814493E+01 -0.55553394790E+00 -0.23622732627E+01  0.35419293777E+01  0.25500000000E-02 0. -1.
         -2    1    1    2    0  501  0.25799814493E+01  0.55553394790E+00 -0.13250792477E+01  0.29530939303E+01  0.25500000000E-02 0.  1.
<mgrwt>
<rscale>  0 0.26391151E+01</rscale>
<asrwt>0</asrwt>
<pdfrwt beam="1">0</pdfrwt>
<pdfrwt beam="2">0</pdfrwt>
<totfact> 0.24141420E+12</totfact>
</mgrwt>
</event>
<event>
 4    1  0.3335341E+006  0.4246518E+01  0.7546771E-02  0.2232511E+00
         22   -1    0    0    0    0  0.00000000000E+00  0.00000000000E+00  0.26382749895E+01  0.26382749895E+01  0.00000000000E+00 0.  1.
         22   -1    0    0    0    0 -0.00000000000E+00 -0.00000000000E+00 -0.16627687079E+02  0.16627687079E+02  0.00000000000E+00 0. -1.
          2    1    1    2  501    0  0.29578904536E+01 -0.30469319310E+01 -0.14387236824E+02  0.15000849978E+02  0.25500000000E-02 0. -1.
         -2    1    1    2    0  501 -0.29578904536E+01  0.30469319310E+01  0.39782473397E+00  0.42651120911E+01  0.25500000000E-02 0.  1.
<mgrwt>
<rscale>  0 0.42465182E+01</rscale>
<asrwt>0</asrwt>
<pdfrwt beam="1">0</pdfrwt>
<pdfrwt beam="2">0</pdfrwt>
<totfact> 0.27846319E+11</totfact>
</mgrwt>
</event>
<event>
 4    1  0.3335341E+006  0.2832085E+01  0.7546771E-02  0.2578062E+00
         22   -1    0    0    0    0  0.00000000000E+00  0.00000000000E+00  0.27391989690E+01  0.27391989690E+01  0.00000000000E+00 0. -1.
         22   -1    0    0    0    0 -0.00000000000E+00 -0.00000000000E+00 -0.29675031628E+01  0.29675031628E+01  0.00000000000E+00 0.  1.
          2    1    1    2  501    0  0.29029667161E+00 -0.28171667095E+01  0.21455385920E+00  0.28402007478E+01  0.25500000000E-02 0. -1.
         -2    1    1    2    0  501 -0.29029667161E+00  0.28171667095E+01 -0.44285805297E+00  0.28665013840E+01  0.25500000000E-02 0.  1.
<mgrwt>
<rscale>  0 0.28320853E+01</rscale>
<asrwt>0</asrwt>
<pdfrwt beam="1">0</pdfrwt>
<pdfrwt beam="2">0</pdfrwt>
<totfact> 0.21015138E+12</totfact>
</mgrwt>
</event>
<event>
 4    1  0.3335341E+006  0.2433323E+01  0.7546771E-02  0.2738676E+00
         22   -1    0    0    0    0  0.00000000000E+00  0.00000000000E+00  0.89150147567E+00  0.89150147567E+00  0.00000000000E+00 0. -1.
         22   -1    0    0    0    0 -0.00000000000E+00 -0.00000000000E+00 -0.11575237059E+02  0.11575237059E+02  0.00000000000E+00 0.  1.
          2    1    1    2  501    0  0.24281548793E+01  0.15848151020E+00 -0.94113429929E+01  0.97208248591E+01  0.25500000000E-02 0.  1.
         -2    1    1    2    0  501 -0.24281548793E+01 -0.15848151020E+00 -0.12723925903E+01  0.27459136755E+01  0.25500000000E-02 0. -1.
<mgrwt>
<rscale>  0 0.24333226E+01</rscale>
<asrwt>0</asrwt>
<pdfrwt beam="1">0</pdfrwt>
<pdfrwt beam="2">0</pdfrwt>
<totfact> 0.15145342E+12</totfact>
</mgrwt>
</event>
<event>
 4    1  0.3335341E+006  0.2625922E+01  0.7546771E-02  0.2655490E+00
         22   -1    0    0    0    0  0.00000000000E+00  0.00000000000E+00  0.85577660948E+01  0.85577660948E+01  0.00000000000E+00 0. -1.
         22   -1    0    0    0    0 -0.00000000000E+00 -0.00000000000E+00 -0.12407501084E+01  0.12407501084E+01  0.00000000000E+00 0.  1.
          2    1    1    2  501    0  0.30161470078E+00 -0.26085411555E+01  0.75762491661E+00  0.27330313581E+01  0.25500000000E-02 0.  1.
         -2    1    1    2    0  501 -0.30161470078E+00  0.26085411555E+01  0.65593910698E+01  0.70654848451E+01  0.25500000000E-02 0. -1.
<mgrwt>
<rscale>  0 0.26259217E+01</rscale>
<asrwt>0</asrwt>
<pdfrwt beam="1">0</pdfrwt>
<pdfrwt beam="2">0</pdfrwt>
<totfact> 0.14962605E+12</totfact>
</mgrwt>
</event>
<event>
 4    1  0.3335341E+006  0.3589226E+01  0.7546771E-02  0.2363441E+00
         22   -1    0    0    0    0  0.00000000000E+00  0.00000000000E+00  0.28550679725E+02  0.28550679725E+02  0.00000000000E+00 0. -1.
         22   -1    0    0    0    0 -0.00000000000E+00 -0.00000000000E+00 -0.10641845628E+01  0.10641845628E+01  0.00000000000E+00 0.  1.
          2    1    1    2  501    0  0.33191321759E+01  0.13659787232E+01  0.25052189191E+01  0.43770611840E+01  0.25500000000E-02 0.  1.
         -2    1    1    2    0  501 -0.33191321759E+01 -0.13659787232E+01  0.24981276243E+02  0.25237803104E+02  0.25500000000E-02 0. -1.
<mgrwt>
<rscale>  0 0.35892259E+01</rscale>
<asrwt>0</asrwt>
<pdfrwt beam="1">0</pdfrwt>
<pdfrwt beam="2">0</pdfrwt>
<totfact> 0.40313867E+11</totfact>
</mgrwt>
</event>
<event>
 4    1  0.3335341E+006  0.2798486E+01  0.7546771E-02  0.2589970E+00
         22   -1    0    0    0    0  0.00000000000E+00  0.00000000000E+00  0.78690714226E+01  0.78690714226E+01  0.00000000000E+00 0. -1.
         22   -1    0    0    0    0 -0.00000000000E+00 -0.00000000000E+00 -0.56831028047E+01  0.56831028047E+01  0.00000000000E+00 0.  1.
          2    1    1    2  501    0  0.24644727403E+01  0.13258540362E+01 -0.50612527406E+01  0.57834073538E+01  0.25500000000E-02 0.  1.
         -2    1    1    2    0  501 -0.24644727403E+01 -0.13258540362E+01  0.72472213585E+01  0.77687668735E+01  0.25500000000E-02 0. -1.
<mgrwt>
<rscale>  0 0.27984855E+01</rscale>
<asrwt>0</asrwt>
<pdfrwt beam="1">0</pdfrwt>
<pdfrwt beam="2">0</pdfrwt>
<totfact> 0.28081809E+11</totfact>
</mgrwt>
</event>
<event>
 4    1  0.3335341E+006  0.3278411E+01  0.7546771E-02  0.2440904E+00
         22   -1    0    0    0    0  0.00000000000E+00  0.00000000000E+00  0.70791600720E+00  0.70791600720E+00  0.00000000000E+00 0. -1.
         22   -1    0    0    0    0 -0.00000000000E+00 -0.00000000000E+00 -0.24969711326E+02  0.24969711326E+02  0.00000000000E+00 0.  1.
          2    1    1    2  501    0  0.19604088277E+01 -0.26276933142E+01 -0.20168863495E+02  0.20433576194E+02  0.25500000000E-02 0.  1.
         -2    1    1    2    0  501 -0.19604088277E+01  0.26276933142E+01 -0.40929318237E+01  0.52440511383E+01  0.25500000000E-02 0. -1.
<mgrwt>
<rscale>  0 0.32784114E+01</rscale>
<asrwt>0</asrwt>
<pdfrwt beam="1">0</pdfrwt>
<pdfrwt beam="2">0</pdfrwt>
<totfact> 0.75999947E+11</totfact>
</mgrwt>
</event>
<event>
 4    1  0.3335341E+006  0.5957266E+01  0.7546771E-02  0.2023542E+00
         22   -1    0    0    0    0  0.00000000000E+00  0.00000000000E+00  0.81812140993E+01  0.81812140993E+01  0.00000000000E+00 0. -1.
         22   -1    0    0    0    0 -0.00000000000E+00 -0.00000000000E+00 -0.61941544189E+01  0.61941544189E+01  0.00000000000E+00 0.  1.
          2    1    1    2  501    0  0.20117629357E+01  0.56073004919E+01 -0.29412517803E+01  0.66437923999E+01  0.25500000000E-02 0.  1.
         -2    1    1    2    0  501 -0.20117629357E+01 -0.56073004919E+01  0.49283114607E+01  0.77315761182E+01  0.25500000000E-02 0. -1.
<mgrwt>
<rscale>  0 0.59572658E+01</rscale>
<asrwt>0</asrwt>
<pdfrwt beam="1">0</pdfrwt>
<pdfrwt beam="2">0</pdfrwt>
<totfact> 0.24189744E+11</totfact>
</mgrwt>
</event>
<event>
 4    1  0.3335341E+006  0.2609974E+01  0.7546771E-02  0.2661946E+00
         22   -1    0    0    0    0  0.00000000000E+00  0.00000000000E+00  0.34875123303E+00  0.34875123303E+00  0.00000000000E+00 0.  1.
         22   -1    0    0    0    0 -0.00000000000E+00 -0.00000000000E+00 -0.23542380123E+02  0.23542380123E+02  0.00000000000E+00 0. -1.
          2    1    1    2  501    0 -0.26062266719E+01 -0.13978700105E+00 -0.16526851628E+02  0.16731670242E+02  0.25500000000E-02 0. -1.
         -2    1    1    2    0  501  0.26062266719E+01  0.13978700105E+00 -0.66667772620E+01  0.71594611135E+01  0.25500000000E-02 0.  1.
<mgrwt>
<rscale>  0 0.26099740E+01</rscale>
<asrwt>0</asrwt>
<pdfrwt beam="1">0</pdfrwt>
<pdfrwt beam="2">0</pdfrwt>
<totfact> 0.18205167E+12</totfact>
</mgrwt>
</event>
<event>
 4    1  0.3335341E+006  0.4616968E+01  0.7546771E-02  0.2172889E+00
         22   -1    0    0    0    0  0.00000000000E+00  0.00000000000E+00  0.17265019172E+02  0.17265019172E+02  0.00000000000E+00 0. -1.
         22   -1    0    0    0    0 -0.00000000000E+00 -0.00000000000E+00 -0.15660712917E+01  0.15660712917E+01  0.00000000000E+00 0.  1.
          2    1    1    2  501    0  0.12180973443E+01 -0.44533838802E+01  0.35181106562E+01  0.58046100831E+01  0.25500000000E-02 0.  1.
         -2    1    1    2    0  501 -0.12180973443E+01  0.44533838802E+01  0.12180837224E+02  0.13026480380E+02  0.25500000000E-02 0. -1.
<mgrwt>
<rscale>  0 0.46169682E+01</rscale>
<asrwt>0</asrwt>
<pdfrwt beam="1">0</pdfrwt>
<pdfrwt beam="2">0</pdfrwt>
<totfact> 0.48622895E+11</totfact>
</mgrwt>
</event>
<event>
 4    1  0.3335341E+006  0.2812493E+01  0.7546771E-02  0.2584975E+00
         22   -1    0    0    0    0  0.00000000000E+00  0.00000000000E+00  0.13412351349E+02  0.13412351349E+02  0.00000000000E+00 0.  1.
         22   -1    0    0    0    0 -0.00000000000E+00 -0.00000000000E+00 -0.59494911775E+00  0.59494911775E+00  0.00000000000E+00 0. -1.
          2    1    1    2  501    0 -0.28121177870E+01 -0.45846336467E-01  0.70625631985E+01  0.76019677565E+01  0.25500000000E-02 0.  1.
         -2    1    1    2    0  501  0.28121177870E+01  0.45846336467E-01  0.57548390325E+01  0.64053327101E+01  0.25500000000E-02 0. -1.
<mgrwt>
<rscale>  0 0.28124926E+01</rscale>
<asrwt>0</asrwt>
<pdfrwt beam="1">0</pdfrwt>
<pdfrwt beam="2">0</pdfrwt>
<totfact> 0.20029625E+12</totfact>
</mgrwt>
</event>
<event>
 4    1  0.3335341E+006  0.2037473E+01  0.7546771E-02  0.2955881E+00
         22   -1    0    0    0    0  0.00000000000E+00  0.00000000000E+00  0.41801623869E+01  0.41801623869E+01  0.00000000000E+00 0.  1.
         22   -1    0    0    0    0 -0.00000000000E+00 -0.00000000000E+00 -0.10517700134E+01  0.10517700134E+01  0.00000000000E+00 0. -1.
          2    1    1    2  501    0 -0.16831900240E+01  0.11481113502E+01  0.94631999222E+00  0.22465120431E+01  0.25500000000E-02 0. -1.
         -2    1    1    2    0  501  0.16831900240E+01 -0.11481113502E+01  0.21820723813E+01  0.29854203572E+01  0.25500000000E-02 0.  1.
<mgrwt>
<rscale>  0 0.20374727E+01</rscale>
<asrwt>0</asrwt>
<pdfrwt beam="1">0</pdfrwt>
<pdfrwt beam="2">0</pdfrwt>
<totfact> 0.42421183E+12</totfact>
</mgrwt>
</event>
<event>
 4    1  0.3335341E+006  0.3916869E+01  0.7546771E-02  0.2293472E+00
         22   -1    0    0    0    0  0.00000000000E+00  0.00000000000E+00  0.35047008386E+01  0.35047008386E+01  0.00000000000E+00 0. -1.
         22   -1    0    0    0    0 -0.00000000000E+00 -0.00000000000E+00 -0.44491045802E+01  0.44491045802E+01  0.00000000000E+00 0.  1.
          2    1    1    2  501    0 -0.32783817160E+01  0.21433775302E+01  0.32286247261E-01  0.39170017637E+01  0.25500000000E-02 0. -1.
         -2    1    1    2    0  501  0.32783817160E+01 -0.21433775302E+01 -0.97668998883E+00  0.40368036551E+01  0.25500000000E-02 0.  1.
<mgrwt>
<rscale>  0 0.39168687E+01</rscale>
<asrwt>0</asrwt>
<pdfrwt beam="1">0</pdfrwt>
<pdfrwt beam="2">0</pdfrwt>
<totfact> 0.97937131E+11</totfact>
</mgrwt>
</event>
<event>
 4    1  0.3335341E+006  0.2754030E+01  0.7546771E-02  0.2606131E+00
         22   -1    0    0    0    0  0.00000000000E+00  0.00000000000E+00  0.16035993292E+02  0.16035993292E+02  0.00000000000E+00 0.  1.
         22   -1    0    0    0    0 -0.00000000000E+00 -0.00000000000E+00 -0.68988352231E+00  0.68988352231E+00  0.00000000000E+00 0. -1.
          2    1    1    2  501    0 -0.24779430205E+01 -0.12018613653E+01  0.29837778504E+01  0.40604937037E+01  0.25500000000E-02 0. -1.
         -2    1    1    2    0  501  0.24779430205E+01  0.12018613653E+01  0.12362331919E+02  0.12665383111E+02  0.25500000000E-02 0.  1.
<mgrwt>
<rscale>  0 0.27540296E+01</rscale>
<asrwt>0</asrwt>
<pdfrwt beam="1">0</pdfrwt>
<pdfrwt beam="2">0</pdfrwt>
<totfact> 0.13595554E+12</totfact>
</mgrwt>
</event>
<event>
 4    1  0.3335341E+006  0.2451542E+01  0.7546771E-02  0.2730287E+00
         22   -1    0    0    0    0  0.00000000000E+00  0.00000000000E+00  0.11282986083E+02  0.11282986083E+02  0.00000000000E+00 0.  1.
         22   -1    0    0    0    0 -0.00000000000E+00 -0.00000000000E+00 -0.89828762594E+00  0.89828762594E+00  0.00000000000E+00 0. -1.
          2    1    1    2  501    0  0.12866859157E+01 -0.20867419355E+01  0.13066324159E+01  0.27780113973E+01  0.25500000000E-02 0. -1.
         -2    1    1    2    0  501 -0.12866859157E+01  0.20867419355E+01  0.90780660407E+01  0.94032623112E+01  0.25500000000E-02 0.  1.
<mgrwt>
<rscale>  0 0.24515422E+01</rscale>
<asrwt>0</asrwt>
<pdfrwt beam="1">0</pdfrwt>
<pdfrwt beam="2">0</pdfrwt>
<totfact> 0.15489670E+12</totfact>
</mgrwt>
</event>
<event>
 4    1  0.3335341E+006  0.3649623E+01  0.7546771E-02  0.2349730E+00
         22   -1    0    0    0    0  0.00000000000E+00  0.00000000000E+00  0.50108637698E+00  0.50108637698E+00  0.00000000000E+00 0. -1.
         22   -1    0    0    0    0 -0.00000000000E+00 -0.00000000000E+00 -0.36709473687E+02  0.36709473687E+02  0.00000000000E+00 0.  1.
          2    1    1    2  501    0 -0.16810239504E+01  0.32394284247E+01 -0.27876642538E+02  0.28114532608E+02  0.25500000000E-02 0.  1.
         -2    1    1    2    0  501  0.16810239504E+01 -0.32394284247E+01 -0.83317447715E+01  0.90960274560E+01  0.25500000000E-02 0. -1.
<mgrwt>
<rscale>  0 0.36496225E+01</rscale>
<asrwt>0</asrwt>
<pdfrwt beam="1">0</pdfrwt>
<pdfrwt beam="2">0</pdfrwt>
<totfact> 0.68751595E+11</totfact>
</mgrwt>
</event>
<event>
 4    1  0.3335341E+006  0.2919714E+01  0.7546771E-02  0.2548176E+00
         22   -1    0    0    0    0  0.00000000000E+00  0.00000000000E+00  0.52282694805E+02  0.52282694805E+02  0.00000000000E+00 0. -1.
         22   -1    0    0    0    0 -0.00000000000E+00 -0.00000000000E+00 -0.25629463088E+00  0.25629463088E+00  0.00000000000E+00 0.  1.
          2    1    1    2  501    0 -0.29067792134E+01  0.27451374183E+00  0.10168199295E+02  0.10579083447E+02  0.25500000000E-02 0.  1.
         -2    1    1    2    0  501  0.29067792134E+01 -0.27451374183E+00  0.41858200879E+02  0.41959905988E+02  0.25500000000E-02 0. -1.
<mgrwt>
<rscale>  0 0.29197140E+01</rscale>
<asrwt>0</asrwt>
<pdfrwt beam="1">0</pdfrwt>
<pdfrwt beam="2">0</pdfrwt>
<totfact> 0.92027847E+11</totfact>
</mgrwt>
</event>
<event>
 4    1  0.3335341E+006  0.2494075E+01  0.7546771E-02  0.2711148E+00
         22   -1    0    0    0    0  0.00000000000E+00  0.00000000000E+00  0.11328493032E+02  0.11328493032E+02  0.00000000000E+00 0.  1.
         22   -1    0    0    0    0 -0.00000000000E+00 -0.00000000000E+00 -0.77696616809E+00  0.77696616809E+00  0.00000000000E+00 0. -1.
          2    1    1    2  501    0 -0.24249501464E+01 -0.58311258780E+00  0.19978637784E+01  0.31956016151E+01  0.25500000000E-02 0. -1.
         -2    1    1    2    0  501  0.24249501464E+01  0.58311258780E+00  0.85536630853E+01  0.89098575848E+01  0.25500000000E-02 0.  1.
<mgrwt>
<rscale>  0 0.24940750E+01</rscale>
<asrwt>0</asrwt>
<pdfrwt beam="1">0</pdfrwt>
<pdfrwt beam="2">0</pdfrwt>
<totfact> 0.18182496E+12</totfact>
</mgrwt>
</event>
<event>
 4    1  0.3335341E+006  0.2640187E+01  0.7546771E-02  0.2649777E+00
         22   -1    0    0    0    0  0.00000000000E+00  0.00000000000E+00  0.29002377727E+01  0.29002377727E+01  0.00000000000E+00 0. -1.
         22   -1    0    0    0    0 -0.00000000000E+00 -0.00000000000E+00 -0.24707435849E+01  0.24707435849E+01  0.00000000000E+00 0.  1.
          2    1    1    2  501    0  0.26392543259E+01 -0.70136694658E-01  0.65792963761E+00  0.27209300732E+01  0.25500000000E-02 0. -1.
         -2    1    1    2    0  501 -0.26392543259E+01  0.70136694658E-01 -0.22843544980E+00  0.26500512844E+01  0.25500000000E-02 0.  1.
<mgrwt>
<rscale>  0 0.26401873E+01</rscale>
<asrwt>0</asrwt>
<pdfrwt beam="1">0</pdfrwt>
<pdfrwt beam="2">0</pdfrwt>
<totfact> 0.24339350E+12</totfact>
</mgrwt>
</event>
<event>
 4    1  0.3335341E+006  0.3489112E+01  0.7546771E-02  0.2387073E+00
         22   -1    0    0    0    0  0.00000000000E+00  0.00000000000E+00  0.14924823749E+02  0.14924823749E+02  0.00000000000E+00 0. -1.
         22   -1    0    0    0    0 -0.00000000000E+00 -0.00000000000E+00 -0.11997656318E+01  0.11997656318E+01  0.00000000000E+00 0.  1.
          2    1    1    2  501    0 -0.17455192366E+01  0.30211022564E+01  0.23008614431E+01  0.41794576361E+01  0.25500000000E-02 0.  1.
         -2    1    1    2    0  501  0.17455192366E+01 -0.30211022564E+01  0.11424196674E+02  0.11945131744E+02  0.25500000000E-02 0. -1.
<mgrwt>
<rscale>  0 0.34891120E+01</rscale>
<asrwt>0</asrwt>
<pdfrwt beam="1">0</pdfrwt>
<pdfrwt beam="2">0</pdfrwt>
<totfact> 0.79037275E+11</totfact>
</mgrwt>
</event>
<event>
 4    1  0.3335341E+006  0.2314600E+01  0.7546771E-02  0.2796376E+00
         22   -1    0    0    0    0  0.00000000000E+00  0.00000000000E+00  0.22212914364E+02  0.22212914364E+02  0.00000000000E+00 0. -1.
         22   -1    0    0    0    0 -0.00000000000E+00 -0.00000000000E+00 -0.24938979010E+00  0.24938979010E+00  0.00000000000E+00 0.  1.
          2    1    1    2  501    0  0.12424513549E+01  0.19528646174E+01  0.89443548984E+01  0.92389856930E+01  0.25500000000E-02 0. -1.
         -2    1    1    2    0  501 -0.12424513549E+01 -0.19528646174E+01  0.13019169676E+02  0.13223318461E+02  0.25500000000E-02 0.  1.
<mgrwt>
<rscale>  0 0.23145998E+01</rscale>
<asrwt>0</asrwt>
<pdfrwt beam="1">0</pdfrwt>
<pdfrwt beam="2">0</pdfrwt>
<totfact> 0.28519002E+12</totfact>
</mgrwt>
</event>
<event>
 4    1  0.3335341E+006  0.3415443E+01  0.7546771E-02  0.2405232E+00
         22   -1    0    0    0    0  0.00000000000E+00  0.00000000000E+00  0.33520435104E+01  0.33520435104E+01  0.00000000000E+00 0. -1.
         22   -1    0    0    0    0 -0.00000000000E+00 -0.00000000000E+00 -0.44183679642E+01  0.44183679642E+01  0.00000000000E+00 0.  1.
          2    1    1    2  501    0 -0.34145314005E+01  0.78869245079E-01 -0.23236031385E+01  0.41309058438E+01  0.25500000000E-02 0.  1.
         -2    1    1    2    0  501  0.34145314005E+01 -0.78869245079E-01  0.12572786848E+01  0.36395056308E+01  0.25500000000E-02 0. -1.
<mgrwt>
<rscale>  0 0.34154431E+01</rscale>
<asrwt>0</asrwt>
<pdfrwt beam="1">0</pdfrwt>
<pdfrwt beam="2">0</pdfrwt>
<totfact> 0.10403227E+12</totfact>
</mgrwt>
</event>
<event>
 4    1  0.3335341E+006  0.2796663E+01  0.7546771E-02  0.2590624E+00
         22   -1    0    0    0    0  0.00000000000E+00  0.00000000000E+00  0.24757301443E+02  0.24757301443E+02  0.00000000000E+00 0. -1.
         22   -1    0    0    0    0 -0.00000000000E+00 -0.00000000000E+00 -0.32368100362E+01  0.32368100362E+01  0.00000000000E+00 0.  1.
          2    1    1    2  501    0  0.17832590703E+01 -0.21543683369E+01 -0.25362042319E+01  0.37754012040E+01  0.25500000000E-02 0.  1.
         -2    1    1    2    0  501 -0.17832590703E+01  0.21543683369E+01  0.24056695638E+02  0.24218710275E+02  0.25500000000E-02 0. -1.
<mgrwt>
<rscale>  0 0.27966627E+01</rscale>
<asrwt>0</asrwt>
<pdfrwt beam="1">0</pdfrwt>
<pdfrwt beam="2">0</pdfrwt>
<totfact> 0.13345664E+11</totfact>
</mgrwt>
</event>
<event>
 4    1  0.3335341E+006  0.2192130E+01  0.7546771E-02  0.2862085E+00
         22   -1    0    0    0    0  0.00000000000E+00  0.00000000000E+00  0.63310747275E+00  0.63310747275E+00  0.00000000000E+00 0.  1.
         22   -1    0    0    0    0 -0.00000000000E+00 -0.00000000000E+00 -0.94821469234E+01  0.94821469234E+01  0.00000000000E+00 0. -1.
          2    1    1    2  501    0  0.11287182029E+01  0.18792077009E+01 -0.66836653511E+01  0.70339757885E+01  0.25500000000E-02 0. -1.
         -2    1    1    2    0  501 -0.11287182029E+01 -0.18792077009E+01 -0.21653740995E+01  0.30812786076E+01  0.25500000000E-02 0.  1.
<mgrwt>
<rscale>  0 0.21921298E+01</rscale>
<asrwt>0</asrwt>
<pdfrwt beam="1">0</pdfrwt>
<pdfrwt beam="2">0</pdfrwt>
<totfact> 0.28462034E+12</totfact>
</mgrwt>
</event>
<event>
 4    1  0.3335341E+006  0.2322961E+01  0.7546771E-02  0.2792130E+00
         22   -1    0    0    0    0  0.00000000000E+00  0.00000000000E+00  0.13757593384E+00  0.13757593384E+00  0.00000000000E+00 0. -1.
         22   -1    0    0    0    0 -0.00000000000E+00 -0.00000000000E+00 -0.16786878239E+03  0.16786878239E+03  0.00000000000E+00 0.  1.
          2    1    1    2  501    0 -0.22760939273E+01 -0.46425832070E+00 -0.15740303649E+03  0.15742017674E+03  0.25500000000E-02 0.  1.
         -2    1    1    2    0  501  0.22760939273E+01  0.46425832070E+00 -0.10328169962E+02  0.10586181588E+02  0.25500000000E-02 0. -1.
<mgrwt>
<rscale>  0 0.23229606E+01</rscale>
<asrwt>0</asrwt>
<pdfrwt beam="1">0</pdfrwt>
<pdfrwt beam="2">0</pdfrwt>
<totfact> 0.35789600E+11</totfact>
</mgrwt>
</event>
<event>
 4    1  0.3335341E+006  0.2114796E+01  0.7546771E-02  0.2907325E+00
         22   -1    0    0    0    0  0.00000000000E+00  0.00000000000E+00  0.51833959354E+01  0.51833959354E+01  0.00000000000E+00 0. -1.
         22   -1    0    0    0    0 -0.00000000000E+00 -0.00000000000E+00 -0.24719928163E+01  0.24719928163E+01  0.00000000000E+00 0.  1.
          2    1    1    2  501    0 -0.16533581038E+01 -0.13186219524E+01 -0.17325617847E+01  0.27338861924E+01  0.25500000000E-02 0.  1.
         -2    1    1    2    0  501  0.16533581038E+01  0.13186219524E+01  0.44439649038E+01  0.49215025593E+01  0.25500000000E-02 0. -1.
<mgrwt>
<rscale>  0 0.21147963E+01</rscale>
<asrwt>0</asrwt>
<pdfrwt beam="1">0</pdfrwt>
<pdfrwt beam="2">0</pdfrwt>
<totfact> 0.12287870E+12</totfact>
</mgrwt>
</event>
<event>
 4    1  0.3335341E+006  0.5162979E+01  0.7546771E-02  0.2104038E+00
         22   -1    0    0    0    0  0.00000000000E+00  0.00000000000E+00  0.21825516912E+02  0.21825516912E+02  0.00000000000E+00 0.  1.
         22   -1    0    0    0    0 -0.00000000000E+00 -0.00000000000E+00 -0.14622234210E+01  0.14622234210E+01  0.00000000000E+00 0. -1.
          2    1    1    2  501    0  0.10306254808E-01  0.51629677926E+01  0.54556318663E+01  0.75113426369E+01  0.25500000000E-02 0. -1.
         -2    1    1    2    0  501 -0.10306254808E-01 -0.51629677926E+01  0.14907661625E+02  0.15776397696E+02  0.25500000000E-02 0.  1.
<mgrwt>
<rscale>  0 0.51629787E+01</rscale>
<asrwt>0</asrwt>
<pdfrwt beam="1">0</pdfrwt>
<pdfrwt beam="2">0</pdfrwt>
<totfact> 0.39298049E+11</totfact>
</mgrwt>
</event>
<event>
 4    1  0.3335341E+006  0.2149877E+01  0.7546771E-02  0.2886414E+00
         22   -1    0    0    0    0  0.00000000000E+00  0.00000000000E+00  0.36734669294E+01  0.36734669294E+01  0.00000000000E+00 0.  1.
         22   -1    0    0    0    0 -0.00000000000E+00 -0.00000000000E+00 -0.34854475908E+01  0.34854475908E+01  0.00000000000E+00 0. -1.
          2    1    1    2  501    0  0.21171765509E+01  0.37353674094E+00 -0.27673451120E+01  0.35043075944E+01  0.25500000000E-02 0. -1.
         -2    1    1    2    0  501 -0.21171765509E+01 -0.37353674094E+00  0.29553644506E+01  0.36546069259E+01  0.25500000000E-02 0.  1.
<mgrwt>
<rscale>  0 0.21498774E+01</rscale>
<asrwt>0</asrwt>
<pdfrwt beam="1">0</pdfrwt>
<pdfrwt beam="2">0</pdfrwt>
<totfact> 0.12349452E+12</totfact>
</mgrwt>
</event>
<event>
 4    1  0.3335341E+006  0.6975718E+01  0.7546771E-02  0.1941851E+00
         22   -1    0    0    0    0  0.00000000000E+00  0.00000000000E+00  0.13654915729E+02  0.13654915729E+02  0.00000000000E+00 0.  1.
         22   -1    0    0    0    0 -0.00000000000E+00 -0.00000000000E+00 -0.35637567532E+01  0.35637567532E+01  0.00000000000E+00 0. -1.
          2    1    1    2  501    0  0.61006541275E+00 -0.69489898491E+01  0.51028305192E+01  0.86428887266E+01  0.25500000000E-02 0. -1.
         -2    1    1    2    0  501 -0.61006541275E+00  0.69489898491E+01  0.49883284566E+01  0.85757837557E+01  0.25500000000E-02 0.  1.
<mgrwt>
<rscale>  0 0.69757183E+01</rscale>
<asrwt>0</asrwt>
<pdfrwt beam="1">0</pdfrwt>
<pdfrwt beam="2">0</pdfrwt>
<totfact> 0.24970338E+11</totfact>
</mgrwt>
</event>
<event>
 4    1  0.3335341E+006  0.2392560E+01  0.7546771E-02  0.2757879E+00
         22   -1    0    0    0    0  0.00000000000E+00  0.00000000000E+00  0.11848876696E+01  0.11848876696E+01  0.00000000000E+00 0. -1.
         22   -1    0    0    0    0 -0.00000000000E+00 -0.00000000000E+00 -0.17071849074E+02  0.17071849074E+02  0.00000000000E+00 0.  1.
          2    1    1    2  501    0 -0.18422633179E+00 -0.23854555667E+01 -0.15673069230E+02  0.15854634754E+02  0.25500000000E-02 0.  1.
         -2    1    1    2    0  501  0.18422633179E+00  0.23854555667E+01 -0.21389217443E+00  0.24021019892E+01  0.25500000000E-02 0. -1.
<mgrwt>
<rscale>  0 0.23925602E+01</rscale>
<asrwt>0</asrwt>
<pdfrwt beam="1">0</pdfrwt>
<pdfrwt beam="2">0</pdfrwt>
<totfact> 0.67919326E+11</totfact>
</mgrwt>
</event>
<event>
 4    1  0.3335341E+006  0.2736005E+01  0.7546771E-02  0.2612820E+00
         22   -1    0    0    0    0  0.00000000000E+00  0.00000000000E+00  0.17838062324E+02  0.17838062324E+02  0.00000000000E+00 0. -1.
         22   -1    0    0    0    0 -0.00000000000E+00 -0.00000000000E+00 -0.50763625781E+00  0.50763625781E+00  0.00000000000E+00 0.  1.
          2    1    1    2  501    0 -0.99212959228E+00  0.25497832751E+01  0.48463138161E+01  0.55652924438E+01  0.25500000000E-02 0.  1.
         -2    1    1    2    0  501  0.99212959228E+00 -0.25497832751E+01  0.12484112251E+02  0.12780406138E+02  0.25500000000E-02 0. -1.
<mgrwt>
<rscale>  0 0.27360048E+01</rscale>
<asrwt>0</asrwt>
<pdfrwt beam="1">0</pdfrwt>
<pdfrwt beam="2">0</pdfrwt>
<totfact> 0.16865587E+12</totfact>
</mgrwt>
</event>
<event>
 4    1  0.3335341E+006  0.3373748E+01  0.7546771E-02  0.2415816E+00
         22   -1    0    0    0    0  0.00000000000E+00  0.00000000000E+00  0.85576269407E+01  0.85576269407E+01  0.00000000000E+00 0. -1.
         22   -1    0    0    0    0 -0.00000000000E+00 -0.00000000000E+00 -0.15036507733E+01  0.15036507733E+01  0.00000000000E+00 0.  1.
          2    1    1    2  501    0 -0.33736693772E+01 -0.22916046633E-01  0.18177202124E+01  0.38322687125E+01  0.25500000000E-02 0.  1.
         -2    1    1    2    0  501  0.33736693772E+01  0.22916046633E-01  0.52362559551E+01  0.62290090015E+01  0.25500000000E-02 0. -1.
<mgrwt>
<rscale>  0 0.33737482E+01</rscale>
<asrwt>0</asrwt>
<pdfrwt beam="1">0</pdfrwt>
<pdfrwt beam="2">0</pdfrwt>
<totfact> 0.11999497E+12</totfact>
</mgrwt>
</event>
<event>
 4    1  0.3335341E+006  0.2857334E+01  0.7546771E-02  0.2569281E+00
         22   -1    0    0    0    0  0.00000000000E+00  0.00000000000E+00  0.22339413284E+02  0.22339413284E+02  0.00000000000E+00 0.  1.
         22   -1    0    0    0    0 -0.00000000000E+00 -0.00000000000E+00 -0.40521225814E+00  0.40521225814E+00  0.00000000000E+00 0. -1.
          2    1    1    2  501    0  0.53945951920E+00 -0.28059463544E+01  0.14528662179E+02  0.14806970748E+02  0.25500000000E-02 0. -1.
         -2    1    1    2    0  501 -0.53945951920E+00  0.28059463544E+01  0.74055388466E+01  0.79376547939E+01  0.25500000000E-02 0.  1.
<mgrwt>
<rscale>  0 0.28573341E+01</rscale>
<asrwt>0</asrwt>
<pdfrwt beam="1">0</pdfrwt>
<pdfrwt beam="2">0</pdfrwt>
<totfact> 0.16425209E+12</totfact>
</mgrwt>
</event>
<event>
 4    1  0.3335341E+006  0.2432214E+01  0.7546771E-02  0.2739190E+00
         22   -1    0    0    0    0  0.00000000000E+00  0.00000000000E+00  0.79196343232E+01  0.79196343232E+01  0.00000000000E+00 0.  1.
         22   -1    0    0    0    0 -0.00000000000E+00 -0.00000000000E+00 -0.19066776715E+01  0.19066776715E+01  0.00000000000E+00 0. -1.
          2    1    1    2  501    0  0.22504582877E+01 -0.92254957374E+00 -0.82527600201E+00  0.25684133629E+01  0.25500000000E-02 0. -1.
         -2    1    1    2    0  501 -0.22504582877E+01  0.92254957374E+00  0.68382326537E+01  0.72578986318E+01  0.25500000000E-02 0.  1.
<mgrwt>
<rscale>  0 0.24322144E+01</rscale>
<asrwt>0</asrwt>
<pdfrwt beam="1">0</pdfrwt>
<pdfrwt beam="2">0</pdfrwt>
<totfact> 0.10015175E+12</totfact>
</mgrwt>
</event>
<event>
 4    1  0.3335341E+006  0.2188049E+01  0.7546771E-02  0.2864395E+00
         22   -1    0    0    0    0  0.00000000000E+00  0.00000000000E+00  0.47848077812E+00  0.47848077812E+00  0.00000000000E+00 0. -1.
         22   -1    0    0    0    0 -0.00000000000E+00 -0.00000000000E+00 -0.40922545751E+02  0.40922545751E+02  0.00000000000E+00 0.  1.
          2    1    1    2  501    0  0.21388776459E+01  0.46125086309E+00 -0.38214762735E+02  0.38277351624E+02  0.25500000000E-02 0.  1.
         -2    1    1    2    0  501 -0.21388776459E+01 -0.46125086309E+00 -0.22293022376E+01  0.31236749050E+01  0.25500000000E-02 0. -1.
<mgrwt>
<rscale>  0 0.21880485E+01</rscale>
<asrwt>0</asrwt>
<pdfrwt beam="1">0</pdfrwt>
<pdfrwt beam="2">0</pdfrwt>
<totfact> 0.62917093E+11</totfact>
</mgrwt>
</event>
<event>
 4    1  0.3335341E+006  0.6568739E+01  0.7546771E-02  0.1972148E+00
         22   -1    0    0    0    0  0.00000000000E+00  0.00000000000E+00  0.39735840367E+01  0.39735840367E+01  0.00000000000E+00 0. -1.
         22   -1    0    0    0    0 -0.00000000000E+00 -0.00000000000E+00 -0.20736680651E+02  0.20736680651E+02  0.00000000000E+00 0.  1.
          2    1    1    2  501    0  0.65686961400E+01 -0.23595520392E-01 -0.16908813934E+02  0.18139909617E+02  0.25500000000E-02 0.  1.
         -2    1    1    2    0  501 -0.65686961400E+01  0.23595520392E-01  0.14571731949E+00  0.65703550717E+01  0.25500000000E-02 0. -1.
<mgrwt>
<rscale>  0 0.65687390E+01</rscale>
<asrwt>0</asrwt>
<pdfrwt beam="1">0</pdfrwt>
<pdfrwt beam="2">0</pdfrwt>
<totfact> 0.13104378E+11</totfact>
</mgrwt>
</event>
<event>
 4    1  0.3335341E+006  0.4084370E+01  0.7546771E-02  0.2261451E+00
         22   -1    0    0    0    0  0.00000000000E+00  0.00000000000E+00  0.24265207432E+00  0.24265207432E+00  0.00000000000E+00 0. -1.
         22   -1    0    0    0    0 -0.00000000000E+00 -0.00000000000E+00 -0.69644377446E+02  0.69644377446E+02  0.00000000000E+00 0.  1.
          2    1    1    2  501    0  0.11923055589E+01 -0.39064665096E+01 -0.38663044912E+02  0.38878183104E+02  0.25500000000E-02 0. -1.
         -2    1    1    2    0  501 -0.11923055589E+01  0.39064665096E+01 -0.30738680460E+02  0.31008846416E+02  0.25500000000E-02 0.  1.
<mgrwt>
<rscale>  0 0.40843702E+01</rscale>
<asrwt>0</asrwt>
<pdfrwt beam="1">0</pdfrwt>
<pdfrwt beam="2">0</pdfrwt>
<totfact> 0.66636954E+11</totfact>
</mgrwt>
</event>
<event>
 4    1  0.3335341E+006  0.2540815E+01  0.7546771E-02  0.2690805E+00
         22   -1    0    0    0    0  0.00000000000E+00  0.00000000000E+00  0.66962453327E+00  0.66962453327E+00  0.00000000000E+00 0.  1.
         22   -1    0    0    0    0 -0.00000000000E+00 -0.00000000000E+00 -0.21017229014E+02  0.21017229014E+02  0.00000000000E+00 0. -1.
          2    1    1    2  501    0  0.22941407705E+01  0.10920858994E+01 -0.18151565147E+02  0.18328531236E+02  0.25500000000E-02 0. -1.
         -2    1    1    2    0  501 -0.22941407705E+01 -0.10920858994E+01 -0.21960393334E+01  0.33583223108E+01  0.25500000000E-02 0.  1.
<mgrwt>
<rscale>  0 0.25408148E+01</rscale>
<asrwt>0</asrwt>
<pdfrwt beam="1">0</pdfrwt>
<pdfrwt beam="2">0</pdfrwt>
<totfact> 0.10050174E+12</totfact>
</mgrwt>
</event>
<event>
 4    1  0.3335341E+006  0.2002398E+01  0.7546771E-02  0.2979112E+00
         22   -1    0    0    0    0  0.00000000000E+00  0.00000000000E+00  0.41905802323E+02  0.41905802323E+02  0.00000000000E+00 0. -1.
         22   -1    0    0    0    0 -0.00000000000E+00 -0.00000000000E+00 -0.12738596172E+00  0.12738596172E+00  0.00000000000E+00 0.  1.
          2    1    1    2  501    0  0.11886311915E+01 -0.16114422162E+01  0.10404316840E+02  0.10595253915E+02  0.25500000000E-02 0.  1.
         -2    1    1    2    0  501 -0.11886311915E+01  0.16114422162E+01  0.31374099521E+02  0.31437934369E+02  0.25500000000E-02 0. -1.
<mgrwt>
<rscale>  0 0.20023977E+01</rscale>
<asrwt>0</asrwt>
<pdfrwt beam="1">0</pdfrwt>
<pdfrwt beam="2">0</pdfrwt>
<totfact> 0.26809036E+12</totfact>
</mgrwt>
</event>
<event>
 4    1  0.3335341E+006  0.2324757E+01  0.7546771E-02  0.2791222E+00
         22   -1    0    0    0    0  0.00000000000E+00  0.00000000000E+00  0.58476772873E+00  0.58476772873E+00  0.00000000000E+00 0.  1.
         22   -1    0    0    0    0 -0.00000000000E+00 -0.00000000000E+00 -0.10137571094E+02  0.10137571094E+02  0.00000000000E+00 0. -1.
          2    1    1    2  501    0 -0.37880258250E+00  0.22936866754E+01 -0.31830476279E+01  0.39416099078E+01  0.25500000000E-02 0.  1.
         -2    1    1    2    0  501  0.37880258250E+00 -0.22936866754E+01 -0.63697557374E+01  0.67807289150E+01  0.25500000000E-02 0. -1.
<mgrwt>
<rscale>  0 0.23247573E+01</rscale>
<asrwt>0</asrwt>
<pdfrwt beam="1">0</pdfrwt>
<pdfrwt beam="2">0</pdfrwt>
<totfact> 0.28722372E+12</totfact>
</mgrwt>
</event>
<event>
 4    1  0.3335341E+006  0.2747296E+01  0.7546771E-02  0.2608621E+00
         22   -1    0    0    0    0  0.00000000000E+00  0.00000000000E+00  0.26667859089E+01  0.26667859089E+01  0.00000000000E+00 0.  1.
         22   -1    0    0    0    0 -0.00000000000E+00 -0.00000000000E+00 -0.28785128879E+01  0.28785128879E+01  0.00000000000E+00 0. -1.
          2    1    1    2  501    0  0.27468978989E+01  0.46702177827E-01  0.25320461202E+00  0.27589396946E+01  0.25500000000E-02 0.  1.
         -2    1    1    2    0  501 -0.27468978989E+01 -0.46702177827E-01 -0.46493159104E+00  0.27863591023E+01  0.25500000000E-02 0. -1.
<mgrwt>
<rscale>  0 0.27472961E+01</rscale>
<asrwt>0</asrwt>
<pdfrwt beam="1">0</pdfrwt>
<pdfrwt beam="2">0</pdfrwt>
<totfact> 0.22466060E+12</totfact>
</mgrwt>
</event>
<event>
 4    1  0.3335341E+006  0.2231943E+01  0.7546771E-02  0.2839970E+00
         22   -1    0    0    0    0  0.00000000000E+00  0.00000000000E+00  0.13458662563E+01  0.13458662563E+01  0.00000000000E+00 0.  1.
         22   -1    0    0    0    0 -0.00000000000E+00 -0.00000000000E+00 -0.37057436407E+01  0.37057436407E+01  0.00000000000E+00 0. -1.
          2    1    1    2  501    0  0.15480070677E+01  0.16078669390E+01 -0.12665677114E+01  0.25662740004E+01  0.25500000000E-02 0. -1.
         -2    1    1    2    0  501 -0.15480070677E+01 -0.16078669390E+01 -0.10933096730E+01  0.24853358966E+01  0.25500000000E-02 0.  1.
<mgrwt>
<rscale>  0 0.22319428E+01</rscale>
<asrwt>0</asrwt>
<pdfrwt beam="1">0</pdfrwt>
<pdfrwt beam="2">0</pdfrwt>
<totfact> 0.36853087E+12</totfact>
</mgrwt>
</event>
<event>
 4    1  0.3335341E+006  0.2070645E+01  0.7546771E-02  0.2934618E+00
         22   -1    0    0    0    0  0.00000000000E+00  0.00000000000E+00  0.15370601381E+01  0.15370601381E+01  0.00000000000E+00 0.  1.
         22   -1    0    0    0    0 -0.00000000000E+00 -0.00000000000E+00 -0.29794441892E+01  0.29794441892E+01  0.00000000000E+00 0. -1.
          2    1    1    2  501    0  0.14924815786E+01  0.14352924395E+01 -0.15094860735E+00  0.20761400805E+01  0.25500000000E-02 0.  1.
         -2    1    1    2    0  501 -0.14924815786E+01 -0.14352924395E+01 -0.12914354438E+01  0.24403642468E+01  0.25500000000E-02 0. -1.
<mgrwt>
<rscale>  0 0.20706453E+01</rscale>
<asrwt>0</asrwt>
<pdfrwt beam="1">0</pdfrwt>
<pdfrwt beam="2">0</pdfrwt>
<totfact> 0.40840286E+12</totfact>
</mgrwt>
</event>
<event>
 4    1  0.3335341E+006  0.2207760E+01  0.7546771E-02  0.2853312E+00
         22   -1    0    0    0    0  0.00000000000E+00  0.00000000000E+00  0.93485263676E+00  0.93485263676E+00  0.00000000000E+00 0.  1.
         22   -1    0    0    0    0 -0.00000000000E+00 -0.00000000000E+00 -0.88126673671E+01  0.88126673671E+01  0.00000000000E+00 0. -1.
          2    1    1    2  501    0 -0.43111881871E+00  0.21652559650E+01 -0.70534117019E+01  0.73908605703E+01  0.25500000000E-02 0. -1.
         -2    1    1    2    0  501  0.43111881871E+00 -0.21652559650E+01 -0.82440302837E+00  0.23566594335E+01  0.25500000000E-02 0.  1.
<mgrwt>
<rscale>  0 0.22077598E+01</rscale>
<asrwt>0</asrwt>
<pdfrwt beam="1">0</pdfrwt>
<pdfrwt beam="2">0</pdfrwt>
<totfact> 0.19962315E+12</totfact>
</mgrwt>
</event>
<event>
 4    1  0.3335341E+006  0.2450038E+01  0.7546771E-02  0.2730975E+00
         22   -1    0    0    0    0  0.00000000000E+00  0.00000000000E+00  0.13773952536E+02  0.13773952536E+02  0.00000000000E+00 0. -1.
         22   -1    0    0    0    0 -0.00000000000E+00 -0.00000000000E+00 -0.11951975545E+02  0.11951975545E+02  0.00000000000E+00 0.  1.
          2    1    1    2  501    0  0.98589012124E+00  0.22429220674E+01 -0.11715289594E+02  0.11968738259E+02  0.25500000000E-02 0.  1.
         -2    1    1    2    0  501 -0.98589012124E+00 -0.22429220674E+01  0.13537266584E+02  0.13757189822E+02  0.25500000000E-02 0. -1.
<mgrwt>
<rscale>  0 0.24500378E+01</rscale>
<asrwt>0</asrwt>
<pdfrwt beam="1">0</pdfrwt>
<pdfrwt beam="2">0</pdfrwt>
<totfact> 0.58224121E+10</totfact>
</mgrwt>
</event>
<event>
 4    1  0.3335341E+006  0.2054096E+01  0.7546771E-02  0.2945142E+00
         22   -1    0    0    0    0  0.00000000000E+00  0.00000000000E+00  0.38571836417E+00  0.38571836417E+00  0.00000000000E+00 0. -1.
         22   -1    0    0    0    0 -0.00000000000E+00 -0.00000000000E+00 -0.61040510331E+02  0.61040510331E+02  0.00000000000E+00 0.  1.
          2    1    1    2  501    0  0.50256257968E+00  0.19916663148E+01 -0.58152762508E+02  0.58189029015E+02  0.25500000000E-02 0.  1.
         -2    1    1    2    0  501 -0.50256257968E+00 -0.19916663148E+01 -0.25020294589E+01  0.32371996806E+01  0.25500000000E-02 0. -1.
<mgrwt>
<rscale>  0 0.20540960E+01</rscale>
<asrwt>0</asrwt>
<pdfrwt beam="1">0</pdfrwt>
<pdfrwt beam="2">0</pdfrwt>
<totfact> 0.47326386E+11</totfact>
</mgrwt>
</event>
<event>
 4    1  0.3335341E+006  0.2067906E+01  0.7546771E-02  0.2936349E+00
         22   -1    0    0    0    0  0.00000000000E+00  0.00000000000E+00  0.19934282246E+01  0.19934282246E+01  0.00000000000E+00 0. -1.
         22   -1    0    0    0    0 -0.00000000000E+00 -0.00000000000E+00 -0.65139268864E+01  0.65139268864E+01  0.00000000000E+00 0.  1.
          2    1    1    2  501    0 -0.19479922065E+01  0.69394249436E+00 -0.57438006814E+01  0.61047098696E+01  0.25500000000E-02 0.  1.
         -2    1    1    2    0  501  0.19479922065E+01 -0.69394249436E+00  0.12233020197E+01  0.24026452414E+01  0.25500000000E-02 0. -1.
<mgrwt>
<rscale>  0 0.20679063E+01</rscale>
<asrwt>0</asrwt>
<pdfrwt beam="1">0</pdfrwt>
<pdfrwt beam="2">0</pdfrwt>
<totfact> 0.12019006E+12</totfact>
</mgrwt>
</event>
<event>
 4    1  0.3335341E+006  0.2033904E+01  0.7546771E-02  0.2958209E+00
         22   -1    0    0    0    0  0.00000000000E+00  0.00000000000E+00  0.57429654097E+00  0.57429654097E+00  0.00000000000E+00 0.  1.
         22   -1    0    0    0    0 -0.00000000000E+00 -0.00000000000E+00 -0.13216701867E+02  0.13216701867E+02  0.00000000000E+00 0. -1.
          2    1    1    2  501    0 -0.13363352870E+01 -0.15332864486E+01 -0.10972438190E+02  0.11159353281E+02  0.25500000000E-02 0. -1.
         -2    1    1    2    0  501  0.13363352870E+01  0.15332864486E+01 -0.16699671365E+01  0.26316451266E+01  0.25500000000E-02 0.  1.
<mgrwt>
<rscale>  0 0.20339041E+01</rscale>
<asrwt>0</asrwt>
<pdfrwt beam="1">0</pdfrwt>
<pdfrwt beam="2">0</pdfrwt>
<totfact> 0.21223069E+12</totfact>
</mgrwt>
</event>
<event>
 4    1  0.3335341E+006  0.3521205E+01  0.7546771E-02  0.2379370E+00
         22   -1    0    0    0    0  0.00000000000E+00  0.00000000000E+00  0.80619136541E+01  0.80619136541E+01  0.00000000000E+00 0. -1.
         22   -1    0    0    0    0 -0.00000000000E+00 -0.00000000000E+00 -0.36033140882E+01  0.36033140882E+01  0.00000000000E+00 0.  1.
          2    1    1    2  501    0  0.22070541324E+01  0.27436820745E+01 -0.21865025117E+01  0.41448376332E+01  0.25500000000E-02 0.  1.
         -2    1    1    2    0  501 -0.22070541324E+01 -0.27436820745E+01  0.66451020776E+01  0.75203901091E+01  0.25500000000E-02 0. -1.
<mgrwt>
<rscale>  0 0.35212052E+01</rscale>
<asrwt>0</asrwt>
<pdfrwt beam="1">0</pdfrwt>
<pdfrwt beam="2">0</pdfrwt>
<totfact> 0.46715106E+11</totfact>
</mgrwt>
</event>
<event>
 4    1  0.3335341E+006  0.2024707E+01  0.7546771E-02  0.2964245E+00
         22   -1    0    0    0    0  0.00000000000E+00  0.00000000000E+00  0.29375801730E+02  0.29375801730E+02  0.00000000000E+00 0.  1.
         22   -1    0    0    0    0 -0.00000000000E+00 -0.00000000000E+00 -0.13982332766E+00  0.13982332766E+00  0.00000000000E+00 0. -1.
          2    1    1    2  501    0  0.17301804763E+01 -0.10516206861E+01  0.13967286030E+02  0.14113274464E+02  0.25500000000E-02 0.  1.
         -2    1    1    2    0  501 -0.17301804763E+01  0.10516206861E+01  0.15268692372E+02  0.15402350594E+02  0.25500000000E-02 0. -1.
<mgrwt>
<rscale>  0 0.20247067E+01</rscale>
<asrwt>0</asrwt>
<pdfrwt beam="1">0</pdfrwt>
<pdfrwt beam="2">0</pdfrwt>
<totfact> 0.38187187E+12</totfact>
</mgrwt>
</event>
<event>
 4    1  0.3335341E+006  0.2088755E+01  0.7546771E-02  0.2923288E+00
         22   -1    0    0    0    0  0.00000000000E+00  0.00000000000E+00  0.30364285786E+00  0.30364285786E+00  0.00000000000E+00 0. -1.
         22   -1    0    0    0    0 -0.00000000000E+00 -0.00000000000E+00 -0.26324135192E+02  0.26324135192E+02  0.00000000000E+00 0.  1.
          2    1    1    2  501    0  0.20182920955E+01 -0.53794636788E+00 -0.21982757215E+02  0.22081768737E+02  0.25500000000E-02 0.  1.
         -2    1    1    2    0  501 -0.20182920955E+01  0.53794636788E+00 -0.40377351189E+01  0.45460093126E+01  0.25500000000E-02 0. -1.
<mgrwt>
<rscale>  0 0.20887546E+01</rscale>
<asrwt>0</asrwt>
<pdfrwt beam="1">0</pdfrwt>
<pdfrwt beam="2">0</pdfrwt>
<totfact> 0.18471755E+12</totfact>
</mgrwt>
</event>
<event>
 4    1  0.3335341E+006  0.2438374E+01  0.7546771E-02  0.2736338E+00
         22   -1    0    0    0    0  0.00000000000E+00  0.00000000000E+00  0.17405124766E+02  0.17405124766E+02  0.00000000000E+00 0.  1.
         22   -1    0    0    0    0 -0.00000000000E+00 -0.00000000000E+00 -0.46563578121E+00  0.46563578121E+00  0.00000000000E+00 0. -1.
          2    1    1    2  501    0  0.19590280806E+01 -0.14518508018E+01  0.13081386106E+02  0.13306702474E+02  0.25500000000E-02 0.  1.
         -2    1    1    2    0  501 -0.19590280806E+01  0.14518508018E+01  0.38581028789E+01  0.45640580734E+01  0.25500000000E-02 0. -1.
<mgrwt>
<rscale>  0 0.24383741E+01</rscale>
<asrwt>0</asrwt>
<pdfrwt beam="1">0</pdfrwt>
<pdfrwt beam="2">0</pdfrwt>
<totfact> 0.19167031E+12</totfact>
</mgrwt>
</event>
<event>
 4    1  0.3335341E+006  0.2719577E+01  0.7546771E-02  0.2618987E+00
         22   -1    0    0    0    0  0.00000000000E+00  0.00000000000E+00  0.34543438594E+01  0.34543438594E+01  0.00000000000E+00 0. -1.
         22   -1    0    0    0    0 -0.00000000000E+00 -0.00000000000E+00 -0.26526317014E+01  0.26526317014E+01  0.00000000000E+00 0.  1.
          2    1    1    2  501    0 -0.10792009466E+01  0.24962811902E+01 -0.94003447246E+00  0.28774582144E+01  0.25500000000E-02 0.  1.
         -2    1    1    2    0  501  0.10792009466E+01 -0.24962811902E+01  0.17417466304E+01  0.32295173464E+01  0.25500000000E-02 0. -1.
<mgrwt>
<rscale>  0 0.27195774E+01</rscale>
<asrwt>0</asrwt>
<pdfrwt beam="1">0</pdfrwt>
<pdfrwt beam="2">0</pdfrwt>
<totfact> 0.18263640E+12</totfact>
</mgrwt>
</event>
<event>
 4    1  0.3335341E+006  0.5618513E+01  0.7546771E-02  0.2055689E+00
         22   -1    0    0    0    0  0.00000000000E+00  0.00000000000E+00  0.80856967174E+01  0.80856967174E+01  0.00000000000E+00 0. -1.
         22   -1    0    0    0    0 -0.00000000000E+00 -0.00000000000E+00 -0.39490646065E+01  0.39490646065E+01  0.00000000000E+00 0.  1.
          2    1    1    2  501    0 -0.33446339084E+01 -0.45145439847E+01  0.14265100622E+01  0.57967767622E+01  0.25500000000E-02 0. -1.
         -2    1    1    2    0  501  0.33446339084E+01  0.45145439847E+01  0.27101220488E+01  0.62379845617E+01  0.25500000000E-02 0.  1.
<mgrwt>
<rscale>  0 0.56185131E+01</rscale>
<asrwt>0</asrwt>
<pdfrwt beam="1">0</pdfrwt>
<pdfrwt beam="2">0</pdfrwt>
<totfact> 0.41799204E+11</totfact>
</mgrwt>
</event>
<event>
 4    1  0.3335341E+006  0.2301198E+01  0.7546771E-02  0.2803242E+00
         22   -1    0    0    0    0  0.00000000000E+00  0.00000000000E+00  0.62977930356E+01  0.62977930356E+01  0.00000000000E+00 0.  1.
         22   -1    0    0    0    0 -0.00000000000E+00 -0.00000000000E+00 -0.93385611908E+00  0.93385611908E+00  0.00000000000E+00 0. -1.
          2    1    1    2  501    0  0.15322697740E+01  0.17168730889E+01  0.15408807764E+01  0.27694446976E+01  0.25500000000E-02 0. -1.
         -2    1    1    2    0  501 -0.15322697740E+01 -0.17168730889E+01  0.38230561401E+01  0.44622044570E+01  0.25500000000E-02 0.  1.
<mgrwt>
<rscale>  0 0.23011976E+01</rscale>
<asrwt>0</asrwt>
<pdfrwt beam="1">0</pdfrwt>
<pdfrwt beam="2">0</pdfrwt>
<totfact> 0.29898664E+12</totfact>
</mgrwt>
</event>
<event>
 4    1  0.3335341E+006  0.2353237E+01  0.7546771E-02  0.2776996E+00
         22   -1    0    0    0    0  0.00000000000E+00  0.00000000000E+00  0.13066767827E+02  0.13066767827E+02  0.00000000000E+00 0. -1.
         22   -1    0    0    0    0 -0.00000000000E+00 -0.00000000000E+00 -0.25336731328E+01  0.25336731328E+01  0.00000000000E+00 0.  1.
          2    1    1    2  501    0 -0.10317737541E+00  0.23509728685E+01 -0.18514779258E+01  0.29942772102E+01  0.25500000000E-02 0.  1.
         -2    1    1    2    0  501  0.10317737541E+00 -0.23509728685E+01  0.12384572620E+02  0.12606163749E+02  0.25500000000E-02 0. -1.
<mgrwt>
<rscale>  0 0.23532372E+01</rscale>
<asrwt>0</asrwt>
<pdfrwt beam="1">0</pdfrwt>
<pdfrwt beam="2">0</pdfrwt>
<totfact> 0.39256165E+11</totfact>
</mgrwt>
</event>
<event>
 4    1  0.3335341E+006  0.3311564E+01  0.7546771E-02  0.2432036E+00
         22   -1    0    0    0    0  0.00000000000E+00  0.00000000000E+00  0.56391699979E+01  0.56391699979E+01  0.00000000000E+00 0.  1.
         22   -1    0    0    0    0 -0.00000000000E+00 -0.00000000000E+00 -0.78697439280E+01  0.78697439280E+01  0.00000000000E+00 0. -1.
          2    1    1    2  501    0  0.11869745879E+01 -0.30915270968E+01 -0.69760772112E+01  0.77221828664E+01  0.25500000000E-02 0. -1.
         -2    1    1    2    0  501 -0.11869745879E+01  0.30915270968E+01  0.47455032811E+01  0.57867310596E+01  0.25500000000E-02 0.  1.
<mgrwt>
<rscale>  0 0.33115638E+01</rscale>
<asrwt>0</asrwt>
<pdfrwt beam="1">0</pdfrwt>
<pdfrwt beam="2">0</pdfrwt>
<totfact> 0.28339363E+11</totfact>
</mgrwt>
</event>
<event>
 4    1  0.3335341E+006  0.1205194E+02  0.7546771E-02  0.1704857E+00
         22   -1    0    0    0    0  0.00000000000E+00  0.00000000000E+00  0.62041288778E+01  0.62041288778E+01  0.00000000000E+00 0.  1.
         22   -1    0    0    0    0 -0.00000000000E+00 -0.00000000000E+00 -0.10192242181E+03  0.10192242181E+03  0.00000000000E+00 0. -1.
          2    1    1    2  501    0  0.11890049072E+02  0.19687582568E+01 -0.95308678770E+02  0.96067650806E+02  0.25500000000E-02 0. -1.
         -2    1    1    2    0  501 -0.11890049072E+02 -0.19687582568E+01 -0.40961415837E+00  0.12058899878E+02  0.25500000000E-02 0.  1.
<mgrwt>
<rscale>  0 0.12051941E+02</rscale>
<asrwt>0</asrwt>
<pdfrwt beam="1">0</pdfrwt>
<pdfrwt beam="2">0</pdfrwt>
<totfact> 0.94976418E+09</totfact>
</mgrwt>
</event>
<event>
 4    1  0.3335341E+006  0.3853335E+01  0.7546771E-02  0.2306238E+00
         22   -1    0    0    0    0  0.00000000000E+00  0.00000000000E+00  0.42077061089E+00  0.42077061089E+00  0.00000000000E+00 0. -1.
         22   -1    0    0    0    0 -0.00000000000E+00 -0.00000000000E+00 -0.58895829232E+02  0.58895829232E+02  0.00000000000E+00 0.  1.
          2    1    1    2  501    0  0.47930335151E+00  0.38234080527E+01 -0.48014748070E+02  0.48169121018E+02  0.25500000000E-02 0.  1.
         -2    1    1    2    0  501 -0.47930335151E+00 -0.38234080527E+01 -0.10460310550E+02  0.11147478825E+02  0.25500000000E-02 0. -1.
<mgrwt>
<rscale>  0 0.38533346E+01</rscale>
<asrwt>0</asrwt>
<pdfrwt beam="1">0</pdfrwt>
<pdfrwt beam="2">0</pdfrwt>
<totfact> 0.45022655E+11</totfact>
</mgrwt>
</event>
<event>
 4    1  0.3335341E+006  0.2151674E+01  0.7546771E-02  0.2885361E+00
         22   -1    0    0    0    0  0.00000000000E+00  0.00000000000E+00  0.24005961062E+01  0.24005961062E+01  0.00000000000E+00 0. -1.
         22   -1    0    0    0    0 -0.00000000000E+00 -0.00000000000E+00 -0.21287278550E+01  0.21287278550E+01  0.00000000000E+00 0.  1.
          2    1    1    2  501    0  0.94460081028E+00  0.19332419703E+01 -0.55850923916E+00  0.22229786952E+01  0.25500000000E-02 0.  1.
         -2    1    1    2    0  501 -0.94460081028E+00 -0.19332419703E+01  0.83037749040E+00  0.23063452659E+01  0.25500000000E-02 0. -1.
<mgrwt>
<rscale>  0 0.21516742E+01</rscale>
<asrwt>0</asrwt>
<pdfrwt beam="1">0</pdfrwt>
<pdfrwt beam="2">0</pdfrwt>
<totfact> 0.36061182E+12</totfact>
</mgrwt>
</event>
<event>
 4    1  0.3335341E+006  0.4292267E+01  0.7546771E-02  0.2224681E+00
         22   -1    0    0    0    0  0.00000000000E+00  0.00000000000E+00  0.16756105285E+01  0.16756105285E+01  0.00000000000E+00 0. -1.
         22   -1    0    0    0    0 -0.00000000000E+00 -0.00000000000E+00 -0.11149375919E+02  0.11149375919E+02  0.00000000000E+00 0.  1.
          2    1    1    2  501    0 -0.36526257037E+01 -0.22543008007E+01 -0.54911244056E+01  0.69696485113E+01  0.25500000000E-02 0.  1.
         -2    1    1    2    0  501  0.36526257037E+01  0.22543008007E+01 -0.39826409852E+01  0.58553379365E+01  0.25500000000E-02 0. -1.
<mgrwt>
<rscale>  0 0.42922667E+01</rscale>
<asrwt>0</asrwt>
<pdfrwt beam="1">0</pdfrwt>
<pdfrwt beam="2">0</pdfrwt>
<totfact> 0.76909246E+11</totfact>
</mgrwt>
</event>
<event>
 4    1  0.3335341E+006  0.3145556E+01  0.7546771E-02  0.2478092E+00
         22   -1    0    0    0    0  0.00000000000E+00  0.00000000000E+00  0.15105140561E+02  0.15105140561E+02  0.00000000000E+00 0.  1.
         22   -1    0    0    0    0 -0.00000000000E+00 -0.00000000000E+00 -0.87420272023E+00  0.87420272023E+00  0.00000000000E+00 0. -1.
          2    1    1    2  501    0  0.26696657958E+01 -0.16635498223E+01  0.31150727689E+01  0.44269852417E+01  0.25500000000E-02 0. -1.
         -2    1    1    2    0  501 -0.26696657958E+01  0.16635498223E+01  0.11115865071E+02  0.11552358039E+02  0.25500000000E-02 0.  1.
<mgrwt>
<rscale>  0 0.31455556E+01</rscale>
<asrwt>0</asrwt>
<pdfrwt beam="1">0</pdfrwt>
<pdfrwt beam="2">0</pdfrwt>
<totfact> 0.11181052E+12</totfact>
</mgrwt>
</event>
<event>
 4    1  0.3335341E+006  0.2853269E+01  0.7546771E-02  0.2570685E+00
         22   -1    0    0    0    0  0.00000000000E+00  0.00000000000E+00  0.21954152919E+01  0.21954152919E+01  0.00000000000E+00 0. -1.
         22   -1    0    0    0    0 -0.00000000000E+00 -0.00000000000E+00 -0.37082610619E+01  0.37082610619E+01  0.00000000000E+00 0.  1.
          2    1    1    2  501    0 -0.28486469956E+01  0.16232165400E+00 -0.75089856783E+00  0.29504225438E+01  0.25500000000E-02 0.  1.
         -2    1    1    2    0  501  0.28486469956E+01 -0.16232165400E+00 -0.76194720214E+00  0.29532538100E+01  0.25500000000E-02 0. -1.
<mgrwt>
<rscale>  0 0.28532691E+01</rscale>
<asrwt>0</asrwt>
<pdfrwt beam="1">0</pdfrwt>
<pdfrwt beam="2">0</pdfrwt>
<totfact> 0.20938077E+12</totfact>
</mgrwt>
</event>
<event>
 4    1  0.3335341E+006  0.2160033E+01  0.7546771E-02  0.2880483E+00
         22   -1    0    0    0    0  0.00000000000E+00  0.00000000000E+00  0.62368673232E+01  0.62368673232E+01  0.00000000000E+00 0.  1.
         22   -1    0    0    0    0 -0.00000000000E+00 -0.00000000000E+00 -0.18800986283E+01  0.18800986283E+01  0.00000000000E+00 0. -1.
          2    1    1    2  501    0  0.18615616765E+01  0.10955925244E+01 -0.97080069412E+00  0.23681628628E+01  0.25500000000E-02 0. -1.
         -2    1    1    2    0  501 -0.18615616765E+01 -0.10955925244E+01  0.53275693890E+01  0.57488030886E+01  0.25500000000E-02 0.  1.
<mgrwt>
<rscale>  0 0.21600327E+01</rscale>
<asrwt>0</asrwt>
<pdfrwt beam="1">0</pdfrwt>
<pdfrwt beam="2">0</pdfrwt>
<totfact> 0.13545476E+12</totfact>
</mgrwt>
</event>
<event>
 4    1  0.3335341E+006  0.3091970E+01  0.7546771E-02  0.2493892E+00
         22   -1    0    0    0    0  0.00000000000E+00  0.00000000000E+00  0.24354260268E+01  0.24354260268E+01  0.00000000000E+00 0.  1.
         22   -1    0    0    0    0 -0.00000000000E+00 -0.00000000000E+00 -0.47292908233E+01  0.47292908233E+01  0.00000000000E+00 0. -1.
          2    1    1    2  501    0  0.10944581254E+01  0.28917871271E+01 -0.26237984375E+01  0.40551937216E+01  0.25500000000E-02 0. -1.
         -2    1    1    2    0  501 -0.10944581254E+01 -0.28917871271E+01  0.32993364098E+00  0.31095231285E+01  0.25500000000E-02 0.  1.
<mgrwt>
<rscale>  0 0.30919699E+01</rscale>
<asrwt>0</asrwt>
<pdfrwt beam="1">0</pdfrwt>
<pdfrwt beam="2">0</pdfrwt>
<totfact> 0.13937035E+12</totfact>
</mgrwt>
</event>
<event>
 4    1  0.3335341E+006  0.2356728E+01  0.7546771E-02  0.2775274E+00
         22   -1    0    0    0    0  0.00000000000E+00  0.00000000000E+00  0.21934691627E+01  0.21934691627E+01  0.00000000000E+00 0.  1.
         22   -1    0    0    0    0 -0.00000000000E+00 -0.00000000000E+00 -0.71284067835E+01  0.71284067835E+01  0.00000000000E+00 0. -1.
          2    1    1    2  501    0  0.10785981444E+01  0.20954207919E+01 -0.62101234092E+01  0.66422738210E+01  0.25500000000E-02 0. -1.
         -2    1    1    2    0  501 -0.10785981444E+01 -0.20954207919E+01  0.12751857884E+01  0.26796021252E+01  0.25500000000E-02 0.  1.
<mgrwt>
<rscale>  0 0.23567284E+01</rscale>
<asrwt>0</asrwt>
<pdfrwt beam="1">0</pdfrwt>
<pdfrwt beam="2">0</pdfrwt>
<totfact> 0.96602921E+11</totfact>
</mgrwt>
</event>
<event>
 4    1  0.3335341E+006  0.2775549E+01  0.7546771E-02  0.2598250E+00
         22   -1    0    0    0    0  0.00000000000E+00  0.00000000000E+00  0.82069718321E+01  0.82069718321E+01  0.00000000000E+00 0. -1.
         22   -1    0    0    0    0 -0.00000000000E+00 -0.00000000000E+00 -0.12043417218E+01  0.12043417218E+01  0.00000000000E+00 0.  1.
          2    1    1    2  501    0 -0.22216083523E+01 -0.16637676754E+01  0.57114285712E+01  0.63501251464E+01  0.25500000000E-02 0.  1.
         -2    1    1    2    0  501  0.22216083523E+01  0.16637676754E+01  0.12912015391E+01  0.30611884075E+01  0.25500000000E-02 0. -1.
<mgrwt>
<rscale>  0 0.27755491E+01</rscale>
<asrwt>0</asrwt>
<pdfrwt beam="1">0</pdfrwt>
<pdfrwt beam="2">0</pdfrwt>
<totfact> 0.16282016E+12</totfact>
</mgrwt>
</event>
<event>
 4    1  0.3335341E+006  0.3601010E+01  0.7546771E-02  0.2360735E+00
         22   -1    0    0    0    0  0.00000000000E+00  0.00000000000E+00  0.10573379495E+01  0.10573379495E+01  0.00000000000E+00 0. -1.
         22   -1    0    0    0    0 -0.00000000000E+00 -0.00000000000E+00 -0.31239966357E+02  0.31239966357E+02  0.00000000000E+00 0.  1.
          2    1    1    2  501    0 -0.15600082790E+01 -0.32455572392E+01 -0.27677150243E+02  0.27910426720E+02  0.25500000000E-02 0.  1.
         -2    1    1    2    0  501  0.15600082790E+01  0.32455572392E+01 -0.25054781645E+01  0.43868775864E+01  0.25500000000E-02 0. -1.
<mgrwt>
<rscale>  0 0.36010102E+01</rscale>
<asrwt>0</asrwt>
<pdfrwt beam="1">0</pdfrwt>
<pdfrwt beam="2">0</pdfrwt>
<totfact> 0.36211781E+11</totfact>
</mgrwt>
</event>
<event>
 4    1  0.3335341E+006  0.2728556E+01  0.7546771E-02  0.2615608E+00
         22   -1    0    0    0    0  0.00000000000E+00  0.00000000000E+00  0.35787191261E+01  0.35787191261E+01  0.00000000000E+00 0. -1.
         22   -1    0    0    0    0 -0.00000000000E+00 -0.00000000000E+00 -0.23591728691E+01  0.23591728691E+01  0.00000000000E+00 0.  1.
          2    1    1    2  501    0  0.17551437667E+01 -0.20891346541E+01 -0.41088377017E+00  0.27593197024E+01  0.25500000000E-02 0.  1.
         -2    1    1    2    0  501 -0.17551437667E+01  0.20891346541E+01  0.16304300271E+01  0.31785722928E+01  0.25500000000E-02 0. -1.
<mgrwt>
<rscale>  0 0.27285563E+01</rscale>
<asrwt>0</asrwt>
<pdfrwt beam="1">0</pdfrwt>
<pdfrwt beam="2">0</pdfrwt>
<totfact> 0.20081590E+12</totfact>
</mgrwt>
</event>
<event>
 4    1  0.3335341E+006  0.2493298E+01  0.7546771E-02  0.2711492E+00
         22   -1    0    0    0    0  0.00000000000E+00  0.00000000000E+00  0.62887423297E+01  0.62887423297E+01  0.00000000000E+00 0.  1.
         22   -1    0    0    0    0 -0.00000000000E+00 -0.00000000000E+00 -0.12583764802E+01  0.12583764802E+01  0.00000000000E+00 0. -1.
          2    1    1    2  501    0  0.21317138059E+01 -0.12931838552E+01  0.42626699609E+01  0.49383084079E+01  0.25500000000E-02 0.  1.
         -2    1    1    2    0  501 -0.21317138059E+01  0.12931838552E+01  0.76769588862E+00  0.26088104020E+01  0.25500000000E-02 0. -1.
<mgrwt>
<rscale>  0 0.24932980E+01</rscale>
<asrwt>0</asrwt>
<pdfrwt beam="1">0</pdfrwt>
<pdfrwt beam="2">0</pdfrwt>
<totfact> 0.21294668E+12</totfact>
</mgrwt>
</event>
<event>
 4    1  0.3335341E+006  0.2179188E+01  0.7546771E-02  0.2869440E+00
         22   -1    0    0    0    0  0.00000000000E+00  0.00000000000E+00  0.52042312715E+01  0.52042312715E+01  0.00000000000E+00 0. -1.
         22   -1    0    0    0    0 -0.00000000000E+00 -0.00000000000E+00 -0.35038056625E+01  0.35038056625E+01  0.00000000000E+00 0.  1.
          2    1    1    2  501    0 -0.29395487073E+00  0.21592696507E+01 -0.28941642731E+01  0.36228508433E+01  0.25500000000E-02 0.  1.
         -2    1    1    2    0  501  0.29395487073E+00 -0.21592696507E+01  0.45945898821E+01  0.50851860908E+01  0.25500000000E-02 0. -1.
<mgrwt>
<rscale>  0 0.21791882E+01</rscale>
<asrwt>0</asrwt>
<pdfrwt beam="1">0</pdfrwt>
<pdfrwt beam="2">0</pdfrwt>
<totfact> 0.81380466E+11</totfact>
</mgrwt>
</event>
<event>
 4    1  0.3335341E+006  0.2278913E+01  0.7546771E-02  0.2814828E+00
         22   -1    0    0    0    0  0.00000000000E+00  0.00000000000E+00  0.75778527559E-01  0.75778527559E-01  0.00000000000E+00 0. -1.
         22   -1    0    0    0    0 -0.00000000000E+00 -0.00000000000E+00 -0.70941109352E+02  0.70941109352E+02  0.00000000000E+00 0.  1.
          2    1    1    2  501    0  0.14513771666E+01 -0.17569698865E+01 -0.41972747957E+02  0.42034569303E+02  0.25500000000E-02 0.  1.
         -2    1    1    2    0  501 -0.14513771666E+01  0.17569698865E+01 -0.28892582867E+02  0.28982318577E+02  0.25500000000E-02 0. -1.
<mgrwt>
<rscale>  0 0.22789132E+01</rscale>
<asrwt>0</asrwt>
<pdfrwt beam="1">0</pdfrwt>
<pdfrwt beam="2">0</pdfrwt>
<totfact> 0.23671167E+12</totfact>
</mgrwt>
</event>
<event>
 4    1  0.3335341E+006  0.2394619E+01  0.7546771E-02  0.2756895E+00
         22   -1    0    0    0    0  0.00000000000E+00  0.00000000000E+00  0.14086704519E+00  0.14086704519E+00  0.00000000000E+00 0. -1.
         22   -1    0    0    0    0 -0.00000000000E+00 -0.00000000000E+00 -0.48276940749E+02  0.48276940749E+02  0.00000000000E+00 0.  1.
          2    1    1    2  501    0  0.22669068134E+01 -0.77157334920E+00 -0.33654690722E+02  0.33739774837E+02  0.25500000000E-02 0.  1.
         -2    1    1    2    0  501 -0.22669068134E+01  0.77157334920E+00 -0.14481382982E+02  0.14678032958E+02  0.25500000000E-02 0. -1.
<mgrwt>
<rscale>  0 0.23946186E+01</rscale>
<asrwt>0</asrwt>
<pdfrwt beam="1">0</pdfrwt>
<pdfrwt beam="2">0</pdfrwt>
<totfact> 0.19924129E+12</totfact>
</mgrwt>
</event>
<event>
 4    1  0.3335341E+006  0.2462385E+01  0.7546771E-02  0.2725349E+00
         22   -1    0    0    0    0  0.00000000000E+00  0.00000000000E+00  0.11929658621E+01  0.11929658621E+01  0.00000000000E+00 0.  1.
         22   -1    0    0    0    0 -0.00000000000E+00 -0.00000000000E+00 -0.68014727680E+01  0.68014727680E+01  0.00000000000E+00 0. -1.
          2    1    1    2  501    0  0.17231273456E+01  0.17590239213E+01 -0.48137229082E+01  0.54069647442E+01  0.25500000000E-02 0. -1.
         -2    1    1    2    0  501 -0.17231273456E+01 -0.17590239213E+01 -0.79478399768E+00  0.25874738859E+01  0.25500000000E-02 0.  1.
<mgrwt>
<rscale>  0 0.24623849E+01</rscale>
<asrwt>0</asrwt>
<pdfrwt beam="1">0</pdfrwt>
<pdfrwt beam="2">0</pdfrwt>
<totfact> 0.20616405E+12</totfact>
</mgrwt>
</event>
<event>
 4    1  0.3335341E+006  0.2193871E+01  0.7546771E-02  0.2861101E+00
         22   -1    0    0    0    0  0.00000000000E+00  0.00000000000E+00  0.42761210058E+01  0.42761210058E+01  0.00000000000E+00 0.  1.
         22   -1    0    0    0    0 -0.00000000000E+00 -0.00000000000E+00 -0.14815175436E+01  0.14815175436E+01  0.00000000000E+00 0. -1.
          2    1    1    2  501    0 -0.17245550103E+01 -0.13560874453E+01 -0.13787753254E-01  0.21939142525E+01  0.25500000000E-02 0.  1.
         -2    1    1    2    0  501  0.17245550103E+01  0.13560874453E+01  0.28083912155E+01  0.35637242969E+01  0.25500000000E-02 0. -1.
<mgrwt>
<rscale>  0 0.21938709E+01</rscale>
<asrwt>0</asrwt>
<pdfrwt beam="1">0</pdfrwt>
<pdfrwt beam="2">0</pdfrwt>
<totfact> 0.27885939E+12</totfact>
</mgrwt>
</event>
<event>
 4    1  0.3335341E+006  0.2062816E+01  0.7546771E-02  0.2939576E+00
         22   -1    0    0    0    0  0.00000000000E+00  0.00000000000E+00  0.35548297877E+00  0.35548297877E+00  0.00000000000E+00 0. -1.
         22   -1    0    0    0    0 -0.00000000000E+00 -0.00000000000E+00 -0.14131018682E+02  0.14131018682E+02  0.00000000000E+00 0.  1.
          2    1    1    2  501    0  0.12272280277E+01 -0.16580455991E+01 -0.97201620337E+01  0.99366372735E+01  0.25500000000E-02 0.  1.
         -2    1    1    2    0  501 -0.12272280277E+01  0.16580455991E+01 -0.40553736694E+01  0.45498643871E+01  0.25500000000E-02 0. -1.
<mgrwt>
<rscale>  0 0.20628161E+01</rscale>
<asrwt>0</asrwt>
<pdfrwt beam="1">0</pdfrwt>
<pdfrwt beam="2">0</pdfrwt>
<totfact> 0.33581878E+12</totfact>
</mgrwt>
</event>
<event>
 4    1  0.3335341E+006  0.2199919E+01  0.7546771E-02  0.2857697E+00
         22   -1    0    0    0    0  0.00000000000E+00  0.00000000000E+00  0.70722298513E+01  0.70722298513E+01  0.00000000000E+00 0.  1.
         22   -1    0    0    0    0 -0.00000000000E+00 -0.00000000000E+00 -0.94601264928E+00  0.94601264928E+00  0.00000000000E+00 0. -1.
          2    1    1    2  501    0  0.19241650946E+01 -0.10664088762E+01  0.95448464573E+00  0.23980589325E+01  0.25500000000E-02 0. -1.
         -2    1    1    2    0  501 -0.19241650946E+01  0.10664088762E+01  0.51717325563E+01  0.56201835680E+01  0.25500000000E-02 0.  1.
<mgrwt>
<rscale>  0 0.21999195E+01</rscale>
<asrwt>0</asrwt>
<pdfrwt beam="1">0</pdfrwt>
<pdfrwt beam="2">0</pdfrwt>
<totfact> 0.25649586E+12</totfact>
</mgrwt>
</event>
<event>
 4    1  0.3335341E+006  0.2804690E+01  0.7546771E-02  0.2587752E+00
         22   -1    0    0    0    0  0.00000000000E+00  0.00000000000E+00  0.81950747908E+01  0.81950747908E+01  0.00000000000E+00 0.  1.
         22   -1    0    0    0    0 -0.00000000000E+00 -0.00000000000E+00 -0.15766194097E+01  0.15766194097E+01  0.00000000000E+00 0. -1.
          2    1    1    2  501    0 -0.16911667475E+01 -0.22374611875E+01  0.25340975988E+00  0.28161144405E+01  0.25500000000E-02 0.  1.
         -2    1    1    2    0  501  0.16911667475E+01  0.22374611875E+01  0.63650456212E+01  0.69555797599E+01  0.25500000000E-02 0. -1.
<mgrwt>
<rscale>  0 0.28046897E+01</rscale>
<asrwt>0</asrwt>
<pdfrwt beam="1">0</pdfrwt>
<pdfrwt beam="2">0</pdfrwt>
<totfact> 0.11969859E+12</totfact>
</mgrwt>
</event>
<event>
 4    1  0.3335341E+006  0.2703602E+01  0.7546771E-02  0.2625049E+00
         22   -1    0    0    0    0  0.00000000000E+00  0.00000000000E+00  0.81485262625E+02  0.81485262625E+02  0.00000000000E+00 0. -1.
         22   -1    0    0    0    0 -0.00000000000E+00 -0.00000000000E+00 -0.11410638813E+01  0.11410638813E+01  0.00000000000E+00 0.  1.
          2    1    1    2  501    0  0.60930280737E+00 -0.26340478994E+01  0.51605457609E+00  0.27524129551E+01  0.25500000000E-02 0.  1.
         -2    1    1    2    0  501 -0.60930280737E+00  0.26340478994E+01  0.79828144168E+02  0.79873913552E+02  0.25500000000E-02 0. -1.
<mgrwt>
<rscale>  0 0.27036022E+01</rscale>
<asrwt>0</asrwt>
<pdfrwt beam="1">0</pdfrwt>
<pdfrwt beam="2">0</pdfrwt>
<totfact> 0.93419262E+10</totfact>
</mgrwt>
</event>
<event>
 4    1  0.3335341E+006  0.2373943E+01  0.7546771E-02  0.2766855E+00
         22   -1    0    0    0    0  0.00000000000E+00  0.00000000000E+00  0.19719362109E+01  0.19719362109E+01  0.00000000000E+00 0. -1.
         22   -1    0    0    0    0 -0.00000000000E+00 -0.00000000000E+00 -0.33381277850E+01  0.33381277850E+01  0.00000000000E+00 0.  1.
          2    1    1    2  501    0 -0.14387757339E+01 -0.18882593483E+01 -0.16901198830E+01  0.29141226296E+01  0.25500000000E-02 0.  1.
         -2    1    1    2    0  501  0.14387757339E+01  0.18882593483E+01  0.32392830888E+00  0.23959413663E+01  0.25500000000E-02 0. -1.
<mgrwt>
<rscale>  0 0.23739430E+01</rscale>
<asrwt>0</asrwt>
<pdfrwt beam="1">0</pdfrwt>
<pdfrwt beam="2">0</pdfrwt>
<totfact> 0.26822253E+12</totfact>
</mgrwt>
</event>
<event>
 4    1  0.3335341E+006  0.3205483E+01  0.7546771E-02  0.2460980E+00
         22   -1    0    0    0    0  0.00000000000E+00  0.00000000000E+00  0.21456474755E+00  0.21456474755E+00  0.00000000000E+00 0. -1.
         22   -1    0    0    0    0 -0.00000000000E+00 -0.00000000000E+00 -0.49750501911E+02  0.49750501911E+02  0.00000000000E+00 0.  1.
          2    1    1    2  501    0 -0.19539869239E+01  0.25410723180E+01 -0.29601478107E+02  0.29774529820E+02  0.25500000000E-02 0.  1.
         -2    1    1    2    0  501  0.19539869239E+01 -0.25410723180E+01 -0.19934459057E+02  0.20190536839E+02  0.25500000000E-02 0. -1.
<mgrwt>
<rscale>  0 0.32054828E+01</rscale>
<asrwt>0</asrwt>
<pdfrwt beam="1">0</pdfrwt>
<pdfrwt beam="2">0</pdfrwt>
<totfact> 0.11985833E+12</totfact>
</mgrwt>
</event>
<event>
 4    1  0.3335341E+006  0.2023071E+01  0.7546771E-02  0.2965324E+00
         22   -1    0    0    0    0  0.00000000000E+00  0.00000000000E+00  0.68964173556E+01  0.68964173556E+01  0.00000000000E+00 0.  1.
         22   -1    0    0    0    0 -0.00000000000E+00 -0.00000000000E+00 -0.63632353298E+00  0.63632353298E+00  0.00000000000E+00 0. -1.
          2    1    1    2  501    0 -0.20230692613E+01 -0.78378795080E-03  0.21526348562E+01  0.29540909223E+01  0.25500000000E-02 0. -1.
         -2    1    1    2    0  501  0.20230692613E+01  0.78378795080E-03  0.41074589665E+01  0.45786499664E+01  0.25500000000E-02 0.  1.
<mgrwt>
<rscale>  0 0.20230710E+01</rscale>
<asrwt>0</asrwt>
<pdfrwt beam="1">0</pdfrwt>
<pdfrwt beam="2">0</pdfrwt>
<totfact> 0.41491454E+12</totfact>
</mgrwt>
</event>
<event>
 4    1  0.3335341E+006  0.2040046E+01  0.7546771E-02  0.2954207E+00
         22   -1    0    0    0    0  0.00000000000E+00  0.00000000000E+00  0.33353198033E+00  0.33353198033E+00  0.00000000000E+00 0. -1.
         22   -1    0    0    0    0 -0.00000000000E+00 -0.00000000000E+00 -0.12810159848E+02  0.12810159848E+02  0.00000000000E+00 0.  1.
          2    1    1    2  501    0  0.34418451126E+00  0.20108008293E+01 -0.72966606043E+01  0.75764797518E+01  0.25500000000E-02 0.  1.
         -2    1    1    2    0  501 -0.34418451126E+00 -0.20108008293E+01 -0.51799672636E+01  0.55672120768E+01  0.25500000000E-02 0. -1.
<mgrwt>
<rscale>  0 0.20400464E+01</rscale>
<asrwt>0</asrwt>
<pdfrwt beam="1">0</pdfrwt>
<pdfrwt beam="2">0</pdfrwt>
<totfact> 0.40682147E+12</totfact>
</mgrwt>
</event>
<event>
 4    1  0.3335341E+006  0.2497061E+01  0.7546771E-02  0.2709827E+00
         22   -1    0    0    0    0  0.00000000000E+00  0.00000000000E+00  0.30347668664E+01  0.30347668664E+01  0.00000000000E+00 0.  1.
         22   -1    0    0    0    0 -0.00000000000E+00 -0.00000000000E+00 -0.37615890888E+01  0.37615890888E+01  0.00000000000E+00 0. -1.
          2    1    1    2  501    0  0.24554224057E+01 -0.45410213263E+00 -0.26525511523E+01  0.36429853219E+01  0.25500000000E-02 0. -1.
         -2    1    1    2    0  501 -0.24554224057E+01  0.45410213263E+00  0.19257289299E+01  0.31533706333E+01  0.25500000000E-02 0.  1.
<mgrwt>
<rscale>  0 0.24970612E+01</rscale>
<asrwt>0</asrwt>
<pdfrwt beam="1">0</pdfrwt>
<pdfrwt beam="2">0</pdfrwt>
<totfact> 0.14124251E+12</totfact>
</mgrwt>
</event>
<event>
 4    1  0.3335341E+006  0.4134145E+01  0.7546771E-02  0.2252363E+00
         22   -1    0    0    0    0  0.00000000000E+00  0.00000000000E+00  0.34638589192E+00  0.34638589192E+00  0.00000000000E+00 0.  1.
         22   -1    0    0    0    0 -0.00000000000E+00 -0.00000000000E+00 -0.51105266898E+02  0.51105266898E+02  0.00000000000E+00 0. -1.
          2    1    1    2  501    0 -0.21679307458E+01 -0.35201170836E+01 -0.30158837274E+02  0.30440870885E+02  0.25500000000E-02 0. -1.
         -2    1    1    2    0  501  0.21679307458E+01  0.35201170836E+01 -0.20600043732E+02  0.21010781905E+02  0.25500000000E-02 0.  1.
<mgrwt>
<rscale>  0 0.41341450E+01</rscale>
<asrwt>0</asrwt>
<pdfrwt beam="1">0</pdfrwt>
<pdfrwt beam="2">0</pdfrwt>
<totfact> 0.67660447E+11</totfact>
</mgrwt>
</event>
<event>
 4    1  0.3335341E+006  0.7167725E+01  0.7546771E-02  0.1928480E+00
         22   -1    0    0    0    0  0.00000000000E+00  0.00000000000E+00  0.11126655442E+02  0.11126655442E+02  0.00000000000E+00 0.  1.
         22   -1    0    0    0    0 -0.00000000000E+00 -0.00000000000E+00 -0.90887750804E+01  0.90887750804E+01  0.00000000000E+00 0. -1.
          2    1    1    2  501    0  0.39890458408E+01  0.59551480143E+01 -0.60706413359E+01  0.93930275910E+01  0.25500000000E-02 0. -1.
         -2    1    1    2    0  501 -0.39890458408E+01 -0.59551480143E+01  0.81085216979E+01  0.10822402932E+02  0.25500000000E-02 0.  1.
<mgrwt>
<rscale>  0 0.71677250E+01</rscale>
<asrwt>0</asrwt>
<pdfrwt beam="1">0</pdfrwt>
<pdfrwt beam="2">0</pdfrwt>
<totfact> 0.10532573E+11</totfact>
</mgrwt>
</event>
<event>
 4    1  0.3335341E+006  0.2864381E+01  0.7546771E-02  0.2566855E+00
         22   -1    0    0    0    0  0.00000000000E+00  0.00000000000E+00  0.56129615717E+01  0.56129615717E+01  0.00000000000E+00 0. -1.
         22   -1    0    0    0    0 -0.00000000000E+00 -0.00000000000E+00 -0.19405231091E+01  0.19405231091E+01  0.00000000000E+00 0.  1.
          2    1    1    2  501    0  0.17939615745E+01 -0.22330192990E+01 -0.39760822089E-01  0.28646571778E+01  0.25500000000E-02 0.  1.
         -2    1    1    2    0  501 -0.17939615745E+01  0.22330192990E+01  0.37121992847E+01  0.46888275030E+01  0.25500000000E-02 0. -1.
<mgrwt>
<rscale>  0 0.28643812E+01</rscale>
<asrwt>0</asrwt>
<pdfrwt beam="1">0</pdfrwt>
<pdfrwt beam="2">0</pdfrwt>
<totfact> 0.14804863E+12</totfact>
</mgrwt>
</event>
<event>
 4    1  0.3335341E+006  0.2138361E+01  0.7546771E-02  0.2893206E+00
         22   -1    0    0    0    0  0.00000000000E+00  0.00000000000E+00  0.42649213852E+01  0.42649213852E+01  0.00000000000E+00 0. -1.
         22   -1    0    0    0    0 -0.00000000000E+00 -0.00000000000E+00 -0.10722519411E+01  0.10722519411E+01  0.00000000000E+00 0.  1.
          2    1    1    2  501    0  0.76510492881E+00  0.19967964830E+01  0.15689382852E+01  0.26521982565E+01  0.25500000000E-02 0. -1.
         -2    1    1    2    0  501 -0.76510492881E+00 -0.19967964830E+01  0.16237311589E+01  0.26849750698E+01  0.25500000000E-02 0.  1.
<mgrwt>
<rscale>  0 0.21383611E+01</rscale>
<asrwt>0</asrwt>
<pdfrwt beam="1">0</pdfrwt>
<pdfrwt beam="2">0</pdfrwt>
<totfact> 0.40527173E+12</totfact>
</mgrwt>
</event>
<event>
 4    1  0.3335341E+006  0.2583876E+01  0.7546771E-02  0.2672668E+00
         22   -1    0    0    0    0  0.00000000000E+00  0.00000000000E+00  0.64109187241E+00  0.64109187241E+00  0.00000000000E+00 0. -1.
         22   -1    0    0    0    0 -0.00000000000E+00 -0.00000000000E+00 -0.24891241333E+02  0.24891241333E+02  0.00000000000E+00 0.  1.
          2    1    1    2  501    0 -0.14381620529E+01  0.21466480993E+01 -0.21861021130E+02  0.22013192851E+02  0.25500000000E-02 0.  1.
         -2    1    1    2    0  501  0.14381620529E+01 -0.21466480993E+01 -0.23891283315E+01  0.35191403552E+01  0.25500000000E-02 0. -1.
<mgrwt>
<rscale>  0 0.25838759E+01</rscale>
<asrwt>0</asrwt>
<pdfrwt beam="1">0</pdfrwt>
<pdfrwt beam="2">0</pdfrwt>
<totfact> 0.85384217E+11</totfact>
</mgrwt>
</event>
<event>
 4    1  0.3335341E+006  0.2396270E+01  0.7546771E-02  0.2756106E+00
         22   -1    0    0    0    0  0.00000000000E+00  0.00000000000E+00  0.40714671858E+02  0.40714671858E+02  0.00000000000E+00 0.  1.
         22   -1    0    0    0    0 -0.00000000000E+00 -0.00000000000E+00 -0.14996020402E+00  0.14996020402E+00  0.00000000000E+00 0. -1.
          2    1    1    2  501    0 -0.14213782448E+01 -0.19291931120E+01  0.15297076604E+02  0.15483625587E+02  0.25500000000E-02 0.  1.
         -2    1    1    2    0  501  0.14213782448E+01  0.19291931120E+01  0.25267635050E+02  0.25381006475E+02  0.25500000000E-02 0. -1.
<mgrwt>
<rscale>  0 0.23962697E+01</rscale>
<asrwt>0</asrwt>
<pdfrwt beam="1">0</pdfrwt>
<pdfrwt beam="2">0</pdfrwt>
<totfact> 0.23222515E+12</totfact>
</mgrwt>
</event>
<event>
 4    1  0.3335341E+006  0.5411817E+01  0.7546771E-02  0.2076835E+00
         22   -1    0    0    0    0  0.00000000000E+00  0.00000000000E+00  0.82700786874E+01  0.82700786874E+01  0.00000000000E+00 0.  1.
         22   -1    0    0    0    0 -0.00000000000E+00 -0.00000000000E+00 -0.52269177613E+01  0.52269177613E+01  0.00000000000E+00 0. -1.
          2    1    1    2  501    0  0.35828464943E+01  0.40559794671E+01 -0.23106294000E+01  0.58844518152E+01  0.25500000000E-02 0. -1.
         -2    1    1    2    0  501 -0.35828464943E+01 -0.40559794671E+01  0.53537903261E+01  0.76125446335E+01  0.25500000000E-02 0.  1.
<mgrwt>
<rscale>  0 0.54118172E+01</rscale>
<asrwt>0</asrwt>
<pdfrwt beam="1">0</pdfrwt>
<pdfrwt beam="2">0</pdfrwt>
<totfact> 0.29216254E+11</totfact>
</mgrwt>
</event>
<event>
 4    1  0.3335341E+006  0.2660383E+01  0.7546771E-02  0.2641784E+00
         22   -1    0    0    0    0  0.00000000000E+00  0.00000000000E+00  0.16770713232E+02  0.16770713232E+02  0.00000000000E+00 0.  1.
         22   -1    0    0    0    0 -0.00000000000E+00 -0.00000000000E+00 -0.98311837745E+00  0.98311837745E+00  0.00000000000E+00 0. -1.
          2    1    1    2  501    0  0.70719574725E+00  0.25646645436E+01  0.11875849109E+01  0.29134162884E+01  0.25500000000E-02 0. -1.
         -2    1    1    2    0  501 -0.70719574725E+00 -0.25646645436E+01  0.14600009944E+02  0.14840415321E+02  0.25500000000E-02 0.  1.
<mgrwt>
<rscale>  0 0.26603828E+01</rscale>
<asrwt>0</asrwt>
<pdfrwt beam="1">0</pdfrwt>
<pdfrwt beam="2">0</pdfrwt>
<totfact> 0.85955262E+11</totfact>
</mgrwt>
</event>
<event>
 4    1  0.3335341E+006  0.4319234E+01  0.7546771E-02  0.2220132E+00
         22   -1    0    0    0    0  0.00000000000E+00  0.00000000000E+00  0.16494284076E+02  0.16494284076E+02  0.00000000000E+00 0. -1.
         22   -1    0    0    0    0 -0.00000000000E+00 -0.00000000000E+00 -0.11662735833E+01  0.11662735833E+01  0.00000000000E+00 0.  1.
          2    1    1    2  501    0  0.41512132712E+01  0.11929799855E+01  0.61293137010E+01  0.74982841915E+01  0.25500000000E-02 0.  1.
         -2    1    1    2    0  501 -0.41512132712E+01 -0.11929799855E+01  0.91986967920E+01  0.10162273468E+02  0.25500000000E-02 0. -1.
<mgrwt>
<rscale>  0 0.43192337E+01</rscale>
<asrwt>0</asrwt>
<pdfrwt beam="1">0</pdfrwt>
<pdfrwt beam="2">0</pdfrwt>
<totfact> 0.72172813E+11</totfact>
</mgrwt>
</event>
<event>
 4    1  0.3335341E+006  0.2804757E+01  0.7546771E-02  0.2587728E+00
         22   -1    0    0    0    0  0.00000000000E+00  0.00000000000E+00  0.13709773965E+01  0.13709773965E+01  0.00000000000E+00 0.  1.
         22   -1    0    0    0    0 -0.00000000000E+00 -0.00000000000E+00 -0.72483151460E+01  0.72483151460E+01  0.00000000000E+00 0. -1.
          2    1    1    2  501    0  0.24121053758E+01 -0.14312236304E+01 -0.49059107426E+01  0.56510724770E+01  0.25500000000E-02 0. -1.
         -2    1    1    2    0  501 -0.24121053758E+01  0.14312236304E+01 -0.97142700697E+00  0.29682200654E+01  0.25500000000E-02 0.  1.
<mgrwt>
<rscale>  0 0.28047567E+01</rscale>
<asrwt>0</asrwt>
<pdfrwt beam="1">0</pdfrwt>
<pdfrwt beam="2">0</pdfrwt>
<totfact> 0.16288315E+12</totfact>
</mgrwt>
</event>
<event>
 4    1  0.3335341E+006  0.3122569E+01  0.7546771E-02  0.2484811E+00
         22   -1    0    0    0    0  0.00000000000E+00  0.00000000000E+00  0.18298559305E+01  0.18298559305E+01  0.00000000000E+00 0. -1.
         22   -1    0    0    0    0 -0.00000000000E+00 -0.00000000000E+00 -0.67116160021E+01  0.67116160021E+01  0.00000000000E+00 0.  1.
          2    1    1    2  501    0 -0.14170511238E+01  0.27825163138E+01 -0.43795959550E+01  0.53787822186E+01  0.25500000000E-02 0.  1.
         -2    1    1    2    0  501  0.14170511238E+01 -0.27825163138E+01 -0.50216411659E+00  0.31626897139E+01  0.25500000000E-02 0. -1.
<mgrwt>
<rscale>  0 0.31225690E+01</rscale>
<asrwt>0</asrwt>
<pdfrwt beam="1">0</pdfrwt>
<pdfrwt beam="2">0</pdfrwt>
<totfact> 0.12805760E+12</totfact>
</mgrwt>
</event>
<event>
 4    1  0.3335341E+006  0.7398059E+01  0.7546771E-02  0.1913144E+00
         22   -1    0    0    0    0  0.00000000000E+00  0.00000000000E+00  0.67467257588E+01  0.67467257588E+01  0.00000000000E+00 0. -1.
         22   -1    0    0    0    0 -0.00000000000E+00 -0.00000000000E+00 -0.87978657176E+01  0.87978657176E+01  0.00000000000E+00 0.  1.
          2    1    1    2  501    0  0.52815758249E+01  0.51803695132E+01  0.11441011091E+01  0.74860032954E+01  0.25500000000E-02 0. -1.
         -2    1    1    2    0  501 -0.52815758249E+01 -0.51803695132E+01 -0.31952410679E+01  0.80585881811E+01  0.25500000000E-02 0.  1.
<mgrwt>
<rscale>  0 0.73980591E+01</rscale>
<asrwt>0</asrwt>
<pdfrwt beam="1">0</pdfrwt>
<pdfrwt beam="2">0</pdfrwt>
<totfact> 0.20015227E+11</totfact>
</mgrwt>
</event>
<event>
 4    1  0.3335341E+006  0.4078476E+01  0.7546771E-02  0.2262540E+00
         22   -1    0    0    0    0  0.00000000000E+00  0.00000000000E+00  0.54791280049E+01  0.54791280049E+01  0.00000000000E+00 0. -1.
         22   -1    0    0    0    0 -0.00000000000E+00 -0.00000000000E+00 -0.92163578494E+01  0.92163578494E+01  0.00000000000E+00 0.  1.
          2    1    1    2  501    0 -0.17549919216E+01  0.36815702510E+01 -0.78856895226E+01  0.88779537004E+01  0.25500000000E-02 0.  1.
         -2    1    1    2    0  501  0.17549919216E+01 -0.36815702510E+01  0.41484596781E+01  0.58175321538E+01  0.25500000000E-02 0. -1.
<mgrwt>
<rscale>  0 0.40784755E+01</rscale>
<asrwt>0</asrwt>
<pdfrwt beam="1">0</pdfrwt>
<pdfrwt beam="2">0</pdfrwt>
<totfact> 0.24246473E+11</totfact>
</mgrwt>
</event>
<event>
 4    1  0.3335341E+006  0.2590696E+01  0.7546771E-02  0.2669847E+00
         22   -1    0    0    0    0  0.00000000000E+00  0.00000000000E+00  0.29110059960E+01  0.29110059960E+01  0.00000000000E+00 0. -1.
         22   -1    0    0    0    0 -0.00000000000E+00 -0.00000000000E+00 -0.33458777810E+01  0.33458777810E+01  0.00000000000E+00 0.  1.
          2    1    1    2  501    0 -0.15120974219E+01 -0.21036307154E+01 -0.19618160131E+01  0.32496814262E+01  0.25500000000E-02 0. -1.
         -2    1    1    2    0  501  0.15120974219E+01  0.21036307154E+01  0.15269442281E+01  0.30072023508E+01  0.25500000000E-02 0.  1.
<mgrwt>
<rscale>  0 0.25906963E+01</rscale>
<asrwt>0</asrwt>
<pdfrwt beam="1">0</pdfrwt>
<pdfrwt beam="2">0</pdfrwt>
<totfact> 0.17011842E+12</totfact>
</mgrwt>
</event>
<event>
 4    1  0.3335341E+006  0.2529452E+01  0.7546771E-02  0.2695686E+00
         22   -1    0    0    0    0  0.00000000000E+00  0.00000000000E+00  0.36728403472E+01  0.36728403472E+01  0.00000000000E+00 0. -1.
         22   -1    0    0    0    0 -0.00000000000E+00 -0.00000000000E+00 -0.17605628079E+01  0.17605628079E+01  0.00000000000E+00 0.  1.
          2    1    1    2  501    0  0.24721595096E+01  0.53530124007E+00  0.12350171137E+01  0.28148523641E+01  0.25500000000E-02 0. -1.
         -2    1    1    2    0  501 -0.24721595096E+01 -0.53530124007E+00  0.67726042553E+00  0.26185507909E+01  0.25500000000E-02 0.  1.
<mgrwt>
<rscale>  0 0.25294518E+01</rscale>
<asrwt>0</asrwt>
<pdfrwt beam="1">0</pdfrwt>
<pdfrwt beam="2">0</pdfrwt>
<totfact> 0.27336643E+12</totfact>
</mgrwt>
</event>
<event>
 4    1  0.3335341E+006  0.2427647E+01  0.7546771E-02  0.2741314E+00
         22   -1    0    0    0    0  0.00000000000E+00  0.00000000000E+00  0.11449232278E+02  0.11449232278E+02  0.00000000000E+00 0. -1.
         22   -1    0    0    0    0 -0.00000000000E+00 -0.00000000000E+00 -0.53596987554E+00  0.53596987554E+00  0.00000000000E+00 0.  1.
          2    1    1    2  501    0  0.22056650444E+01 -0.10141519965E+01  0.66490735074E+01  0.70783930075E+01  0.25500000000E-02 0. -1.
         -2    1    1    2    0  501 -0.22056650444E+01  0.10141519965E+01  0.42641888955E+01  0.49068091464E+01  0.25500000000E-02 0.  1.
<mgrwt>
<rscale>  0 0.24276468E+01</rscale>
<asrwt>0</asrwt>
<pdfrwt beam="1">0</pdfrwt>
<pdfrwt beam="2">0</pdfrwt>
<totfact> 0.27344293E+12</totfact>
</mgrwt>
</event>
<event>
 4    1  0.3335341E+006  0.2774483E+01  0.7546771E-02  0.2598637E+00
         22   -1    0    0    0    0  0.00000000000E+00  0.00000000000E+00  0.18235934643E+01  0.18235934643E+01  0.00000000000E+00 0. -1.
         22   -1    0    0    0    0 -0.00000000000E+00 -0.00000000000E+00 -0.42991603659E+01  0.42991603659E+01  0.00000000000E+00 0.  1.
          2    1    1    2  501    0  0.50463113741E+00  0.27282038898E+01 -0.82553635263E+00  0.28946961535E+01  0.25500000000E-02 0. -1.
         -2    1    1    2    0  501 -0.50463113741E+00 -0.27282038898E+01 -0.16500305490E+01  0.32280576767E+01  0.25500000000E-02 0.  1.
<mgrwt>
<rscale>  0 0.27744829E+01</rscale>
<asrwt>0</asrwt>
<pdfrwt beam="1">0</pdfrwt>
<pdfrwt beam="2">0</pdfrwt>
<totfact> 0.21809986E+12</totfact>
</mgrwt>
</event>
<event>
 4    1  0.3335341E+006  0.3537685E+01  0.7546771E-02  0.2375462E+00
         22   -1    0    0    0    0  0.00000000000E+00  0.00000000000E+00  0.64756087175E+01  0.64756087175E+01  0.00000000000E+00 0.  1.
         22   -1    0    0    0    0 -0.00000000000E+00 -0.00000000000E+00 -0.19359648349E+01  0.19359648349E+01  0.00000000000E+00 0. -1.
          2    1    1    2  501    0  0.34927970256E+01 -0.56176324731E+00  0.20963188972E+01  0.41121488822E+01  0.25500000000E-02 0. -1.
         -2    1    1    2    0  501 -0.34927970256E+01  0.56176324731E+00  0.24433249853E+01  0.42994246702E+01  0.25500000000E-02 0.  1.
<mgrwt>
<rscale>  0 0.35376850E+01</rscale>
<asrwt>0</asrwt>
<pdfrwt beam="1">0</pdfrwt>
<pdfrwt beam="2">0</pdfrwt>
<totfact> 0.12521859E+12</totfact>
</mgrwt>
</event>
<event>
 4    1  0.3335341E+006  0.5012182E+01  0.7546771E-02  0.2121552E+00
         22   -1    0    0    0    0  0.00000000000E+00  0.00000000000E+00  0.10862452329E+01  0.10862452329E+01  0.00000000000E+00 0. -1.
         22   -1    0    0    0    0 -0.00000000000E+00 -0.00000000000E+00 -0.28345102923E+02  0.28345102923E+02  0.00000000000E+00 0.  1.
          2    1    1    2  501    0 -0.27056683840E+01  0.42191616476E+01 -0.19943114071E+02  0.20563311303E+02  0.25500000000E-02 0.  1.
         -2    1    1    2    0  501  0.27056683840E+01 -0.42191616476E+01 -0.73157436190E+01  0.88680368523E+01  0.25500000000E-02 0. -1.
<mgrwt>
<rscale>  0 0.50121825E+01</rscale>
<asrwt>0</asrwt>
<pdfrwt beam="1">0</pdfrwt>
<pdfrwt beam="2">0</pdfrwt>
<totfact> 0.39742364E+11</totfact>
</mgrwt>
</event>
<event>
 4    1  0.3335341E+006  0.2967213E+01  0.7546771E-02  0.2532644E+00
         22   -1    0    0    0    0  0.00000000000E+00  0.00000000000E+00  0.22155882491E+01  0.22155882491E+01  0.00000000000E+00 0.  1.
         22   -1    0    0    0    0 -0.00000000000E+00 -0.00000000000E+00 -0.48115748756E+01  0.48115748756E+01  0.00000000000E+00 0. -1.
          2    1    1    2  501    0  0.23461588745E+01  0.18165584542E+01 -0.27640962569E+01  0.40551918206E+01  0.25500000000E-02 0. -1.
         -2    1    1    2    0  501 -0.23461588745E+01 -0.18165584542E+01  0.16810963041E+00  0.29719713041E+01  0.25500000000E-02 0.  1.
<mgrwt>
<rscale>  0 0.29672129E+01</rscale>
<asrwt>0</asrwt>
<pdfrwt beam="1">0</pdfrwt>
<pdfrwt beam="2">0</pdfrwt>
<totfact> 0.15241328E+12</totfact>
</mgrwt>
</event>
<event>
 4    1  0.3335341E+006  0.2636058E+01  0.7546771E-02  0.2651425E+00
         22   -1    0    0    0    0  0.00000000000E+00  0.00000000000E+00  0.17439860072E+01  0.17439860072E+01  0.00000000000E+00 0. -1.
         22   -1    0    0    0    0 -0.00000000000E+00 -0.00000000000E+00 -0.58594538793E+01  0.58594538793E+01  0.00000000000E+00 0.  1.
          2    1    1    2  501    0 -0.24969305078E+01 -0.84506306885E+00 -0.42083074655E+01  0.49657478568E+01  0.25500000000E-02 0.  1.
         -2    1    1    2    0  501  0.24969305078E+01  0.84506306885E+00  0.92839593326E-01  0.26376920297E+01  0.25500000000E-02 0. -1.
<mgrwt>
<rscale>  0 0.26360577E+01</rscale>
<asrwt>0</asrwt>
<pdfrwt beam="1">0</pdfrwt>
<pdfrwt beam="2">0</pdfrwt>
<totfact> 0.15914582E+12</totfact>
</mgrwt>
</event>
<event>
 4    1  0.3335341E+006  0.2087130E+01  0.7546771E-02  0.2924297E+00
         22   -1    0    0    0    0  0.00000000000E+00  0.00000000000E+00  0.22463835553E+01  0.22463835553E+01  0.00000000000E+00 0.  1.
         22   -1    0    0    0    0 -0.00000000000E+00 -0.00000000000E+00 -0.20922070138E+01  0.20922070138E+01  0.00000000000E+00 0. -1.
          2    1    1    2  501    0  0.14980027532E+01  0.14533036042E+01 -0.50961779193E+00  0.21484460456E+01  0.25500000000E-02 0. -1.
         -2    1    1    2    0  501 -0.14980027532E+01 -0.14533036042E+01  0.66379433340E+00  0.21901445235E+01  0.25500000000E-02 0.  1.
<mgrwt>
<rscale>  0 0.20871296E+01</rscale>
<asrwt>0</asrwt>
<pdfrwt beam="1">0</pdfrwt>
<pdfrwt beam="2">0</pdfrwt>
<totfact> 0.39739890E+12</totfact>
</mgrwt>
</event>
<event>
 4    1  0.3335341E+006  0.2122321E+01  0.7546771E-02  0.2902784E+00
         22   -1    0    0    0    0  0.00000000000E+00  0.00000000000E+00  0.11577950369E+01  0.11577950369E+01  0.00000000000E+00 0.  1.
         22   -1    0    0    0    0 -0.00000000000E+00 -0.00000000000E+00 -0.86562524208E+01  0.86562524208E+01  0.00000000000E+00 0. -1.
          2    1    1    2  501    0  0.15647257587E+01  0.14338322403E+01 -0.73902647608E+01  0.76889701086E+01  0.25500000000E-02 0. -1.
         -2    1    1    2    0  501 -0.15647257587E+01 -0.14338322403E+01 -0.10819262308E+00  0.21250773490E+01  0.25500000000E-02 0.  1.
<mgrwt>
<rscale>  0 0.21223214E+01</rscale>
<asrwt>0</asrwt>
<pdfrwt beam="1">0</pdfrwt>
<pdfrwt beam="2">0</pdfrwt>
<totfact> 0.15974367E+12</totfact>
</mgrwt>
</event>
<event>
 4    1  0.3335341E+006  0.2189436E+01  0.7546771E-02  0.2863609E+00
         22   -1    0    0    0    0  0.00000000000E+00  0.00000000000E+00  0.17079443968E+02  0.17079443968E+02  0.00000000000E+00 0.  1.
         22   -1    0    0    0    0 -0.00000000000E+00 -0.00000000000E+00 -0.31839730057E+00  0.31839730057E+00  0.00000000000E+00 0. -1.
          2    1    1    2  501    0  0.16863811297E+01  0.13963313502E+01  0.11375050471E+02  0.11583842294E+02  0.25500000000E-02 0.  1.
         -2    1    1    2    0  501 -0.16863811297E+01 -0.13963313502E+01  0.53859961960E+01  0.58139989749E+01  0.25500000000E-02 0. -1.
<mgrwt>
<rscale>  0 0.21894358E+01</rscale>
<asrwt>0</asrwt>
<pdfrwt beam="1">0</pdfrwt>
<pdfrwt beam="2">0</pdfrwt>
<totfact> 0.30089488E+12</totfact>
</mgrwt>
</event>
<event>
 4    1  0.3335341E+006  0.2515948E+01  0.7546771E-02  0.2701541E+00
         22   -1    0    0    0    0  0.00000000000E+00  0.00000000000E+00  0.86126463389E-01  0.86126463389E-01  0.00000000000E+00 0. -1.
         22   -1    0    0    0    0 -0.00000000000E+00 -0.00000000000E+00 -0.81535994789E+02  0.81535994789E+02  0.00000000000E+00 0.  1.
          2    1    1    2  501    0  0.11476801773E+01  0.22389321319E+01 -0.53539905724E+02  0.53598987848E+02  0.25500000000E-02 0. -1.
         -2    1    1    2    0  501 -0.11476801773E+01 -0.22389321319E+01 -0.27909962602E+02  0.28023133405E+02  0.25500000000E-02 0.  1.
<mgrwt>
<rscale>  0 0.25159478E+01</rscale>
<asrwt>0</asrwt>
<pdfrwt beam="1">0</pdfrwt>
<pdfrwt beam="2">0</pdfrwt>
<totfact> 0.16988531E+12</totfact>
</mgrwt>
</event>
<event>
 4    1  0.3335341E+006  0.2485574E+01  0.7546771E-02  0.2714924E+00
         22   -1    0    0    0    0  0.00000000000E+00  0.00000000000E+00  0.13997389968E+01  0.13997389968E+01  0.00000000000E+00 0. -1.
         22   -1    0    0    0    0 -0.00000000000E+00 -0.00000000000E+00 -0.46086036929E+01  0.46086036929E+01  0.00000000000E+00 0.  1.
          2    1    1    2  501    0 -0.93803148341E+00 -0.23017753295E+01 -0.22221774009E+01  0.33340893262E+01  0.25500000000E-02 0.  1.
         -2    1    1    2    0  501  0.93803148341E+00  0.23017753295E+01 -0.98668729522E+00  0.26742533636E+01  0.25500000000E-02 0. -1.
<mgrwt>
<rscale>  0 0.24855742E+01</rscale>
<asrwt>0</asrwt>
<pdfrwt beam="1">0</pdfrwt>
<pdfrwt beam="2">0</pdfrwt>
<totfact> 0.27250761E+12</totfact>
</mgrwt>
</event>
<event>
 4    1  0.3335341E+006  0.2628130E+01  0.7546771E-02  0.2654602E+00
         22   -1    0    0    0    0  0.00000000000E+00  0.00000000000E+00  0.61514286529E+00  0.61514286529E+00  0.00000000000E+00 0. -1.
         22   -1    0    0    0    0 -0.00000000000E+00 -0.00000000000E+00 -0.12831867841E+02  0.12831867841E+02  0.00000000000E+00 0.  1.
          2    1    1    2  501    0  0.20261172795E+01 -0.16738900061E+01 -0.84851040994E+01  0.88827955657E+01  0.25500000000E-02 0.  1.
         -2    1    1    2    0  501 -0.20261172795E+01  0.16738900061E+01 -0.37316208766E+01  0.45642151409E+01  0.25500000000E-02 0. -1.
<mgrwt>
<rscale>  0 0.26281297E+01</rscale>
<asrwt>0</asrwt>
<pdfrwt beam="1">0</pdfrwt>
<pdfrwt beam="2">0</pdfrwt>
<totfact> 0.20359437E+12</totfact>
</mgrwt>
</event>
<event>
 4    1  0.3335341E+006  0.3038843E+01  0.7546771E-02  0.2510046E+00
         22   -1    0    0    0    0  0.00000000000E+00  0.00000000000E+00  0.37191500205E+01  0.37191500205E+01  0.00000000000E+00 0.  1.
         22   -1    0    0    0    0 -0.00000000000E+00 -0.00000000000E+00 -0.38515555292E+01  0.38515555292E+01  0.00000000000E+00 0. -1.
          2    1    1    2  501    0  0.45150096571E+00  0.30051134147E+01 -0.23226388631E+01  0.38248160149E+01  0.25500000000E-02 0. -1.
         -2    1    1    2    0  501 -0.45150096571E+00 -0.30051134147E+01  0.21902333544E+01  0.37458895347E+01  0.25500000000E-02 0.  1.
<mgrwt>
<rscale>  0 0.30388429E+01</rscale>
<asrwt>0</asrwt>
<pdfrwt beam="1">0</pdfrwt>
<pdfrwt beam="2">0</pdfrwt>
<totfact> 0.10825534E+12</totfact>
</mgrwt>
</event>
<event>
 4    1  0.3335341E+006  0.2056416E+01  0.7546771E-02  0.2943657E+00
         22   -1    0    0    0    0  0.00000000000E+00  0.00000000000E+00  0.31838699606E+01  0.31838699606E+01  0.00000000000E+00 0. -1.
         22   -1    0    0    0    0 -0.00000000000E+00 -0.00000000000E+00 -0.25545270524E+01  0.25545270524E+01  0.00000000000E+00 0.  1.
          2    1    1    2  501    0 -0.18273241682E+01 -0.94325361895E+00 -0.16732844626E+01  0.26511749094E+01  0.25500000000E-02 0.  1.
         -2    1    1    2    0  501  0.18273241682E+01  0.94325361895E+00  0.23026273708E+01  0.30872221035E+01  0.25500000000E-02 0. -1.
<mgrwt>
<rscale>  0 0.20564162E+01</rscale>
<asrwt>0</asrwt>
<pdfrwt beam="1">0</pdfrwt>
<pdfrwt beam="2">0</pdfrwt>
<totfact> 0.20992872E+12</totfact>
</mgrwt>
</event>
<event>
 4    1  0.3335341E+006  0.2140250E+01  0.7546771E-02  0.2892087E+00
         22   -1    0    0    0    0  0.00000000000E+00  0.00000000000E+00  0.45869088089E+01  0.45869088089E+01  0.00000000000E+00 0.  1.
         22   -1    0    0    0    0 -0.00000000000E+00 -0.00000000000E+00 -0.11552190470E+01  0.11552190470E+01  0.00000000000E+00 0. -1.
          2    1    1    2  501    0 -0.19427320787E+01 -0.89802949666E+00  0.27728504473E+01  0.35027661943E+01  0.25500000000E-02 0.  1.
         -2    1    1    2    0  501  0.19427320787E+01  0.89802949666E+00  0.65883931455E+00  0.22393616616E+01  0.25500000000E-02 0. -1.
<mgrwt>
<rscale>  0 0.21402503E+01</rscale>
<asrwt>0</asrwt>
<pdfrwt beam="1">0</pdfrwt>
<pdfrwt beam="2">0</pdfrwt>
<totfact> 0.34151991E+12</totfact>
</mgrwt>
</event>
<event>
 4    1  0.3335341E+006  0.2331064E+01  0.7546771E-02  0.2788043E+00
         22   -1    0    0    0    0  0.00000000000E+00  0.00000000000E+00  0.82669199054E+01  0.82669199054E+01  0.00000000000E+00 0.  1.
         22   -1    0    0    0    0 -0.00000000000E+00 -0.00000000000E+00 -0.22767514124E+01  0.22767514124E+01  0.00000000000E+00 0. -1.
          2    1    1    2  501    0 -0.18971853299E+01 -0.13544530262E+01 -0.14511032230E+01  0.27458263315E+01  0.25500000000E-02 0. -1.
         -2    1    1    2    0  501  0.18971853299E+01  0.13544530262E+01  0.74412717160E+01  0.77978449863E+01  0.25500000000E-02 0.  1.
<mgrwt>
<rscale>  0 0.23310645E+01</rscale>
<asrwt>0</asrwt>
<pdfrwt beam="1">0</pdfrwt>
<pdfrwt beam="2">0</pdfrwt>
<totfact> 0.77446882E+11</totfact>
</mgrwt>
</event>
<event>
 4    1  0.3335341E+006  0.3063780E+01  0.7546771E-02  0.2502402E+00
         22   -1    0    0    0    0  0.00000000000E+00  0.00000000000E+00  0.16840433828E+01  0.16840433828E+01  0.00000000000E+00 0. -1.
         22   -1    0    0    0    0 -0.00000000000E+00 -0.00000000000E+00 -0.10704683255E+02  0.10704683255E+02  0.00000000000E+00 0.  1.
          2    1    1    2  501    0 -0.27327607353E+01 -0.13851921109E+01 -0.87987684765E+01  0.93169239358E+01  0.25500000000E-02 0.  1.
         -2    1    1    2    0  501  0.27327607353E+01  0.13851921109E+01 -0.22187139547E+00  0.30718027018E+01  0.25500000000E-02 0. -1.
<mgrwt>
<rscale>  0 0.30637795E+01</rscale>
<asrwt>0</asrwt>
<pdfrwt beam="1">0</pdfrwt>
<pdfrwt beam="2">0</pdfrwt>
<totfact> 0.80340921E+11</totfact>
</mgrwt>
</event>
<event>
 4    1  0.3335341E+006  0.2743769E+01  0.7546771E-02  0.2609929E+00
         22   -1    0    0    0    0  0.00000000000E+00  0.00000000000E+00  0.57424439204E+01  0.57424439204E+01  0.00000000000E+00 0.  1.
         22   -1    0    0    0    0 -0.00000000000E+00 -0.00000000000E+00 -0.22189573344E+01  0.22189573344E+01  0.00000000000E+00 0. -1.
          2    1    1    2  501    0  0.27160033002E+01  0.38934107173E+00 -0.78462355917E+00  0.28537520967E+01  0.25500000000E-02 0. -1.
         -2    1    1    2    0  501 -0.27160033002E+01 -0.38934107173E+00  0.43081101452E+01  0.51076491582E+01  0.25500000000E-02 0.  1.
<mgrwt>
<rscale>  0 0.27437687E+01</rscale>
<asrwt>0</asrwt>
<pdfrwt beam="1">0</pdfrwt>
<pdfrwt beam="2">0</pdfrwt>
<totfact> 0.12336144E+12</totfact>
</mgrwt>
</event>
<event>
 4    1  0.3335341E+006  0.2006087E+01  0.7546771E-02  0.2976631E+00
         22   -1    0    0    0    0  0.00000000000E+00  0.00000000000E+00  0.64621340505E+00  0.64621340505E+00  0.00000000000E+00 0. -1.
         22   -1    0    0    0    0 -0.00000000000E+00 -0.00000000000E+00 -0.94305527757E+01  0.94305527757E+01  0.00000000000E+00 0.  1.
          2    1    1    2  501    0  0.18197429238E+01 -0.84434294913E+00 -0.73284331560E+01  0.75980470088E+01  0.25500000000E-02 0.  1.
         -2    1    1    2    0  501 -0.18197429238E+01  0.84434294913E+00 -0.14559062146E+01  0.24787191719E+01  0.25500000000E-02 0. -1.
<mgrwt>
<rscale>  0 0.20060872E+01</rscale>
<asrwt>0</asrwt>
<pdfrwt beam="1">0</pdfrwt>
<pdfrwt beam="2">0</pdfrwt>
<totfact> 0.27991036E+12</totfact>
</mgrwt>
</event>
<event>
 4    1  0.3335341E+006  0.3453798E+01  0.7546771E-02  0.2395693E+00
         22   -1    0    0    0    0  0.00000000000E+00  0.00000000000E+00  0.23628688492E+01  0.23628688492E+01  0.00000000000E+00 0. -1.
         22   -1    0    0    0    0 -0.00000000000E+00 -0.00000000000E+00 -0.55898899191E+01  0.55898899191E+01  0.00000000000E+00 0.  1.
          2    1    1    2  501    0  0.10948024473E+01 -0.32756859449E+01 -0.37591241638E+00  0.34741945046E+01  0.25500000000E-02 0. -1.
         -2    1    1    2    0  501 -0.10948024473E+01  0.32756859449E+01 -0.28511086535E+01  0.44785642638E+01  0.25500000000E-02 0.  1.
<mgrwt>
<rscale>  0 0.34537975E+01</rscale>
<asrwt>0</asrwt>
<pdfrwt beam="1">0</pdfrwt>
<pdfrwt beam="2">0</pdfrwt>
<totfact> 0.11841303E+12</totfact>
</mgrwt>
</event>
<event>
 4    1  0.3335341E+006  0.3591327E+01  0.7546771E-02  0.2362957E+00
         22   -1    0    0    0    0  0.00000000000E+00  0.00000000000E+00  0.29482198161E+02  0.29482198161E+02  0.00000000000E+00 0.  1.
         22   -1    0    0    0    0 -0.00000000000E+00 -0.00000000000E+00 -0.58476961666E+00  0.58476961666E+00  0.00000000000E+00 0. -1.
          2    1    1    2  501    0 -0.15532144520E+01  0.32380776751E+01  0.69036060562E+01  0.77818638671E+01  0.25500000000E-02 0. -1.
         -2    1    1    2    0  501  0.15532144520E+01 -0.32380776751E+01  0.21993822489E+02  0.22285103911E+02  0.25500000000E-02 0.  1.
<mgrwt>
<rscale>  0 0.35913269E+01</rscale>
<asrwt>0</asrwt>
<pdfrwt beam="1">0</pdfrwt>
<pdfrwt beam="2">0</pdfrwt>
<totfact> 0.76468582E+11</totfact>
</mgrwt>
</event>
<event>
 4    1  0.3335341E+006  0.4700138E+01  0.7546771E-02  0.2160594E+00
         22   -1    0    0    0    0  0.00000000000E+00  0.00000000000E+00  0.34451542547E+01  0.34451542547E+01  0.00000000000E+00 0. -1.
         22   -1    0    0    0    0 -0.00000000000E+00 -0.00000000000E+00 -0.71489079935E+01  0.71489079935E+01  0.00000000000E+00 0.  1.
          2    1    1    2  501    0 -0.44835940052E+01 -0.14102041463E+01 -0.15153416454E+00  0.47025801475E+01  0.25500000000E-02 0. -1.
         -2    1    1    2    0  501  0.44835940052E+01  0.14102041463E+01 -0.35522195742E+01  0.58914821008E+01  0.25500000000E-02 0.  1.
<mgrwt>
<rscale>  0 0.47001380E+01</rscale>
<asrwt>0</asrwt>
<pdfrwt beam="1">0</pdfrwt>
<pdfrwt beam="2">0</pdfrwt>
<totfact> 0.56875395E+11</totfact>
</mgrwt>
</event>
<event>
 4    1  0.3335341E+006  0.2510971E+01  0.7546771E-02  0.2703713E+00
         22   -1    0    0    0    0  0.00000000000E+00  0.00000000000E+00  0.91407720208E+00  0.91407720208E+00  0.00000000000E+00 0.  1.
         22   -1    0    0    0    0 -0.00000000000E+00 -0.00000000000E+00 -0.13973124292E+02  0.13973124292E+02  0.00000000000E+00 0. -1.
          2    1    1    2  501    0  0.11805824766E+01  0.22161218087E+01 -0.11826332779E+02  0.12089959651E+02  0.25500000000E-02 0. -1.
         -2    1    1    2    0  501 -0.11805824766E+01 -0.22161218087E+01 -0.12327143109E+01  0.27972418433E+01  0.25500000000E-02 0.  1.
<mgrwt>
<rscale>  0 0.25109714E+01</rscale>
<asrwt>0</asrwt>
<pdfrwt beam="1">0</pdfrwt>
<pdfrwt beam="2">0</pdfrwt>
<totfact> 0.11694208E+12</totfact>
</mgrwt>
</event>
<event>
 4    1  0.3335341E+006  0.3186251E+01  0.7546771E-02  0.2466409E+00
         22   -1    0    0    0    0  0.00000000000E+00  0.00000000000E+00  0.54570419015E+00  0.54570419015E+00  0.00000000000E+00 0. -1.
         22   -1    0    0    0    0 -0.00000000000E+00 -0.00000000000E+00 -0.18796480072E+02  0.18796480072E+02  0.00000000000E+00 0.  1.
          2    1    1    2  501    0 -0.31792334114E+01 -0.21133448291E+00 -0.10104448888E+02  0.10594908266E+02  0.25500000000E-02 0.  1.
         -2    1    1    2    0  501  0.31792334114E+01  0.21133448291E+00 -0.81463269945E+01  0.87472759961E+01  0.25500000000E-02 0. -1.
<mgrwt>
<rscale>  0 0.31862508E+01</rscale>
<asrwt>0</asrwt>
<pdfrwt beam="1">0</pdfrwt>
<pdfrwt beam="2">0</pdfrwt>
<totfact> 0.14564410E+12</totfact>
</mgrwt>
</event>
<event>
 4    1  0.3335341E+006  0.2815752E+01  0.7546771E-02  0.2583819E+00
         22   -1    0    0    0    0  0.00000000000E+00  0.00000000000E+00  0.80276559376E+01  0.80276559376E+01  0.00000000000E+00 0. -1.
         22   -1    0    0    0    0 -0.00000000000E+00 -0.00000000000E+00 -0.12705972951E+01  0.12705972951E+01  0.00000000000E+00 0.  1.
          2    1    1    2  501    0 -0.13554568803E+01  0.24680338008E+01  0.11845864396E+01  0.30547840728E+01  0.25500000000E-02 0.  1.
         -2    1    1    2    0  501  0.13554568803E+01 -0.24680338008E+01  0.55724722029E+01  0.62434691599E+01  0.25500000000E-02 0. -1.
<mgrwt>
<rscale>  0 0.28157522E+01</rscale>
<asrwt>0</asrwt>
<pdfrwt beam="1">0</pdfrwt>
<pdfrwt beam="2">0</pdfrwt>
<totfact> 0.15724556E+12</totfact>
</mgrwt>
</event>
<event>
 4    1  0.3335341E+006  0.2437497E+01  0.7546771E-02  0.2736744E+00
         22   -1    0    0    0    0  0.00000000000E+00  0.00000000000E+00  0.31296645332E+01  0.31296645332E+01  0.00000000000E+00 0. -1.
         22   -1    0    0    0    0 -0.00000000000E+00 -0.00000000000E+00 -0.35092339875E+02  0.35092339875E+02  0.00000000000E+00 0.  1.
          2    1    1    2  501    0  0.21830704266E+01  0.10842445301E+01 -0.34568223423E+02  0.34654054017E+02  0.25500000000E-02 0.  1.
         -2    1    1    2    0  501 -0.21830704266E+01 -0.10842445301E+01  0.26055480812E+01  0.35679503913E+01  0.25500000000E-02 0. -1.
<mgrwt>
<rscale>  0 0.24374965E+01</rscale>
<asrwt>0</asrwt>
<pdfrwt beam="1">0</pdfrwt>
<pdfrwt beam="2">0</pdfrwt>
<totfact> 0.89025781E+10</totfact>
</mgrwt>
</event>
<event>
 4    1  0.3335341E+006  0.2645911E+01  0.7546771E-02  0.2647500E+00
         22   -1    0    0    0    0  0.00000000000E+00  0.00000000000E+00  0.16525312280E+01  0.16525312280E+01  0.00000000000E+00 0.  1.
         22   -1    0    0    0    0 -0.00000000000E+00 -0.00000000000E+00 -0.42369864021E+01  0.42369864021E+01  0.00000000000E+00 0. -1.
          2    1    1    2  501    0 -0.63712236278E+00  0.25680559948E+01 -0.13257866618E+01  0.29594853053E+01  0.25500000000E-02 0. -1.
         -2    1    1    2    0  501  0.63712236278E+00 -0.25680559948E+01 -0.12586685123E+01  0.29300323247E+01  0.25500000000E-02 0.  1.
<mgrwt>
<rscale>  0 0.26459106E+01</rscale>
<asrwt>0</asrwt>
<pdfrwt beam="1">0</pdfrwt>
<pdfrwt beam="2">0</pdfrwt>
<totfact> 0.24858669E+12</totfact>
</mgrwt>
</event>
<event>
 4    1  0.3335341E+006  0.2254483E+01  0.7546771E-02  0.2827780E+00
         22   -1    0    0    0    0  0.00000000000E+00  0.00000000000E+00  0.46851853633E+01  0.46851853633E+01  0.00000000000E+00 0.  1.
         22   -1    0    0    0    0 -0.00000000000E+00 -0.00000000000E+00 -0.10289029299E+02  0.10289029299E+02  0.00000000000E+00 0. -1.
          2    1    1    2  501    0 -0.45308485419E+00 -0.22084835266E+01 -0.98833288809E+01  0.10137202851E+02  0.25500000000E-02 0. -1.
         -2    1    1    2    0  501  0.45308485419E+00  0.22084835266E+01  0.42794849447E+01  0.48370118117E+01  0.25500000000E-02 0.  1.
<mgrwt>
<rscale>  0 0.22544826E+01</rscale>
<asrwt>0</asrwt>
<pdfrwt beam="1">0</pdfrwt>
<pdfrwt beam="2">0</pdfrwt>
<totfact> 0.25544739E+11</totfact>
</mgrwt>
</event>
<event>
 4    1  0.3335341E+006  0.2509222E+01  0.7546771E-02  0.2704478E+00
         22   -1    0    0    0    0  0.00000000000E+00  0.00000000000E+00  0.24781258386E+02  0.24781258386E+02  0.00000000000E+00 0.  1.
         22   -1    0    0    0    0 -0.00000000000E+00 -0.00000000000E+00 -0.16282213910E+01  0.16282213910E+01  0.00000000000E+00 0. -1.
          2    1    1    2  501    0  0.24745240968E+01 -0.41583428241E+00 -0.55430509183E+00  0.25697175513E+01  0.25500000000E-02 0. -1.
         -2    1    1    2    0  501 -0.24745240968E+01  0.41583428241E+00  0.23707342087E+02  0.23839762226E+02  0.25500000000E-02 0.  1.
<mgrwt>
<rscale>  0 0.25092218E+01</rscale>
<asrwt>0</asrwt>
<pdfrwt beam="1">0</pdfrwt>
<pdfrwt beam="2">0</pdfrwt>
<totfact> 0.29599374E+11</totfact>
</mgrwt>
</event>
<event>
 4    1  0.3335341E+006  0.3546651E+01  0.7546771E-02  0.2373349E+00
         22   -1    0    0    0    0  0.00000000000E+00  0.00000000000E+00  0.99525668868E+02  0.99525668868E+02  0.00000000000E+00 0.  1.
         22   -1    0    0    0    0 -0.00000000000E+00 -0.00000000000E+00 -0.16908004855E+00  0.16908004855E+00  0.00000000000E+00 0. -1.
          2    1    1    2  501    0 -0.31992192239E+01 -0.15309233981E+01  0.24630158488E+02  0.24884200685E+02  0.25500000000E-02 0. -1.
         -2    1    1    2    0  501  0.31992192239E+01  0.15309233981E+01  0.74726430332E+02  0.74810548232E+02  0.25500000000E-02 0.  1.
<mgrwt>
<rscale>  0 0.35466515E+01</rscale>
<asrwt>0</asrwt>
<pdfrwt beam="1">0</pdfrwt>
<pdfrwt beam="2">0</pdfrwt>
<totfact> 0.60914587E+11</totfact>
</mgrwt>
</event>
<event>
 4    1  0.3335341E+006  0.2692782E+01  0.7546771E-02  0.2629193E+00
         22   -1    0    0    0    0  0.00000000000E+00  0.00000000000E+00  0.44996345174E+01  0.44996345174E+01  0.00000000000E+00 0. -1.
         22   -1    0    0    0    0 -0.00000000000E+00 -0.00000000000E+00 -0.19103200856E+01  0.19103200856E+01  0.00000000000E+00 0.  1.
          2    1    1    2  501    0 -0.19698911155E+01 -0.18359180083E+01  0.25622830611E+01  0.37170373859E+01  0.25500000000E-02 0. -1.
         -2    1    1    2    0  501  0.19698911155E+01  0.18359180083E+01  0.27031370694E-01  0.26929172171E+01  0.25500000000E-02 0.  1.
<mgrwt>
<rscale>  0 0.26927815E+01</rscale>
<asrwt>0</asrwt>
<pdfrwt beam="1">0</pdfrwt>
<pdfrwt beam="2">0</pdfrwt>
<totfact> 0.19587603E+12</totfact>
</mgrwt>
</event>
<event>
 4    1  0.3335341E+006  0.2272437E+01  0.7546771E-02  0.2818235E+00
         22   -1    0    0    0    0  0.00000000000E+00  0.00000000000E+00  0.14739725658E+02  0.14739725658E+02  0.00000000000E+00 0. -1.
         22   -1    0    0    0    0 -0.00000000000E+00 -0.00000000000E+00 -0.42902717422E+00  0.42902717422E+00  0.00000000000E+00 0.  1.
          2    1    1    2  501    0 -0.21414707381E+01 -0.76030775122E+00  0.39073269340E+01  0.45200857370E+01  0.25500000000E-02 0.  1.
         -2    1    1    2    0  501  0.21414707381E+01  0.76030775122E+00  0.10403371550E+02  0.10648667095E+02  0.25500000000E-02 0. -1.
<mgrwt>
<rscale>  0 0.22724373E+01</rscale>
<asrwt>0</asrwt>
<pdfrwt beam="1">0</pdfrwt>
<pdfrwt beam="2">0</pdfrwt>
<totfact> 0.25806553E+12</totfact>
</mgrwt>
</event>
<event>
 4    1  0.3335341E+006  0.4879017E+01  0.7546771E-02  0.2137728E+00
         22   -1    0    0    0    0  0.00000000000E+00  0.00000000000E+00  0.86216863100E+01  0.86216863100E+01  0.00000000000E+00 0. -1.
         22   -1    0    0    0    0 -0.00000000000E+00 -0.00000000000E+00 -0.29232301617E+01  0.29232301617E+01  0.00000000000E+00 0.  1.
          2    1    1    2  501    0 -0.41426027085E+01 -0.25775257690E+01  0.14895241877E+01  0.51013218972E+01  0.25500000000E-02 0. -1.
         -2    1    1    2    0  501  0.41426027085E+01  0.25775257690E+01  0.42089319605E+01  0.64435945745E+01  0.25500000000E-02 0.  1.
<mgrwt>
<rscale>  0 0.48790166E+01</rscale>
<asrwt>0</asrwt>
<pdfrwt beam="1">0</pdfrwt>
<pdfrwt beam="2">0</pdfrwt>
<totfact> 0.55043580E+11</totfact>
</mgrwt>
</event>
<event>
 4    1  0.3335341E+006  0.2650645E+01  0.7546771E-02  0.2645624E+00
         22   -1    0    0    0    0  0.00000000000E+00  0.00000000000E+00  0.21431285472E+01  0.21431285472E+01  0.00000000000E+00 0.  1.
         22   -1    0    0    0    0 -0.00000000000E+00 -0.00000000000E+00 -0.39377958723E+01  0.39377958723E+01  0.00000000000E+00 0. -1.
          2    1    1    2  501    0 -0.18106779208E+01  0.19358087693E+01 -0.21415730537E+01  0.34076754204E+01  0.25500000000E-02 0. -1.
         -2    1    1    2    0  501  0.18106779208E+01 -0.19358087693E+01  0.34690572855E+00  0.26732489991E+01  0.25500000000E-02 0.  1.
<mgrwt>
<rscale>  0 0.26506446E+01</rscale>
<asrwt>0</asrwt>
<pdfrwt beam="1">0</pdfrwt>
<pdfrwt beam="2">0</pdfrwt>
<totfact> 0.20063910E+12</totfact>
</mgrwt>
</event>
<event>
 4    1  0.3335341E+006  0.2204066E+01  0.7546771E-02  0.2855374E+00
         22   -1    0    0    0    0  0.00000000000E+00  0.00000000000E+00  0.11552064854E+00  0.11552064854E+00  0.00000000000E+00 0. -1.
         22   -1    0    0    0    0 -0.00000000000E+00 -0.00000000000E+00 -0.68265781611E+02  0.68265781611E+02  0.00000000000E+00 0.  1.
          2    1    1    2  501    0  0.36073104536E+00 -0.21743442268E+01 -0.55262077938E+02  0.55306013816E+02  0.25500000000E-02 0.  1.
         -2    1    1    2    0  501 -0.36073104536E+00  0.21743442268E+01 -0.12888183024E+02  0.13075288443E+02  0.25500000000E-02 0. -1.
<mgrwt>
<rscale>  0 0.22040658E+01</rscale>
<asrwt>0</asrwt>
<pdfrwt beam="1">0</pdfrwt>
<pdfrwt beam="2">0</pdfrwt>
<totfact> 0.15641650E+12</totfact>
</mgrwt>
</event>
<event>
 4    1  0.3335341E+006  0.2037940E+01  0.7546771E-02  0.2955576E+00
         22   -1    0    0    0    0  0.00000000000E+00  0.00000000000E+00  0.75930037819E+00  0.75930037819E+00  0.00000000000E+00 0.  1.
         22   -1    0    0    0    0 -0.00000000000E+00 -0.00000000000E+00 -0.94338797646E+01  0.94338797646E+01  0.00000000000E+00 0. -1.
          2    1    1    2  501    0  0.19076487899E+01 -0.71698745771E+00 -0.76410395341E+01  0.79081405263E+01  0.25500000000E-02 0. -1.
         -2    1    1    2    0  501 -0.19076487899E+01  0.71698745771E+00 -0.10335398524E+01  0.22850396165E+01  0.25500000000E-02 0.  1.
<mgrwt>
<rscale>  0 0.20379405E+01</rscale>
<asrwt>0</asrwt>
<pdfrwt beam="1">0</pdfrwt>
<pdfrwt beam="2">0</pdfrwt>
<totfact> 0.23298967E+12</totfact>
</mgrwt>
</event>
<event>
 4    1  0.3335341E+006  0.2308253E+01  0.7546771E-02  0.2799617E+00
         22   -1    0    0    0    0  0.00000000000E+00  0.00000000000E+00  0.31218676427E+01  0.31218676427E+01  0.00000000000E+00 0.  1.
         22   -1    0    0    0    0 -0.00000000000E+00 -0.00000000000E+00 -0.22026934220E+01  0.22026934220E+01  0.00000000000E+00 0. -1.
          2    1    1    2  501    0  0.34187287589E+00 -0.22827943453E+01 -0.80376051806E+00  0.24441899597E+01  0.25500000000E-02 0. -1.
         -2    1    1    2    0  501 -0.34187287589E+00  0.22827943453E+01  0.17229347388E+01  0.28803711050E+01  0.25500000000E-02 0.  1.
<mgrwt>
<rscale>  0 0.23082534E+01</rscale>
<asrwt>0</asrwt>
<pdfrwt beam="1">0</pdfrwt>
<pdfrwt beam="2">0</pdfrwt>
<totfact> 0.25518520E+12</totfact>
</mgrwt>
</event>
<event>
 4    1  0.3335341E+006  0.4875696E+01  0.7546771E-02  0.2138140E+00
         22   -1    0    0    0    0  0.00000000000E+00  0.00000000000E+00  0.33919455685E+01  0.33919455685E+01  0.00000000000E+00 0.  1.
         22   -1    0    0    0    0 -0.00000000000E+00 -0.00000000000E+00 -0.71771671476E+01  0.71771671476E+01  0.00000000000E+00 0. -1.
          2    1    1    2  501    0  0.20155173121E+01 -0.44396054141E+01 -0.10824679831E+01  0.49944118478E+01  0.25500000000E-02 0. -1.
         -2    1    1    2    0  501 -0.20155173121E+01  0.44396054141E+01 -0.27027535960E+01  0.55747008683E+01  0.25500000000E-02 0.  1.
<mgrwt>
<rscale>  0 0.48756961E+01</rscale>
<asrwt>0</asrwt>
<pdfrwt beam="1">0</pdfrwt>
<pdfrwt beam="2">0</pdfrwt>
<totfact> 0.57649531E+11</totfact>
</mgrwt>
</event>
<event>
 4    1  0.3335341E+006  0.3692194E+01  0.7546771E-02  0.2340300E+00
         22   -1    0    0    0    0  0.00000000000E+00  0.00000000000E+00  0.78328245846E+01  0.78328245846E+01  0.00000000000E+00 0.  1.
         22   -1    0    0    0    0 -0.00000000000E+00 -0.00000000000E+00 -0.25556277638E+01  0.25556277638E+01  0.00000000000E+00 0. -1.
          2    1    1    2  501    0  0.10472806898E+01 -0.35405500232E+01 -0.29506200852E+00  0.37039653618E+01  0.25500000000E-02 0. -1.
         -2    1    1    2    0  501 -0.10472806898E+01  0.35405500232E+01  0.55722588294E+01  0.66844869866E+01  0.25500000000E-02 0.  1.
<mgrwt>
<rscale>  0 0.36921942E+01</rscale>
<asrwt>0</asrwt>
<pdfrwt beam="1">0</pdfrwt>
<pdfrwt beam="2">0</pdfrwt>
<totfact> 0.72252080E+11</totfact>
</mgrwt>
</event>
<event>
 4    1  0.3335341E+006  0.2450459E+01  0.7546771E-02  0.2730782E+00
         22   -1    0    0    0    0  0.00000000000E+00  0.00000000000E+00  0.61345822513E+00  0.61345822513E+00  0.00000000000E+00 0.  1.
         22   -1    0    0    0    0 -0.00000000000E+00 -0.00000000000E+00 -0.14076896323E+02  0.14076896323E+02  0.00000000000E+00 0. -1.
          2    1    1    2  501    0 -0.10508585965E+01  0.22136933824E+01 -0.10785903251E+02  0.11060762072E+02  0.25500000000E-02 0. -1.
         -2    1    1    2    0  501  0.10508585965E+01 -0.22136933824E+01 -0.26775348472E+01  0.36295924760E+01  0.25500000000E-02 0.  1.
<mgrwt>
<rscale>  0 0.24504589E+01</rscale>
<asrwt>0</asrwt>
<pdfrwt beam="1">0</pdfrwt>
<pdfrwt beam="2">0</pdfrwt>
<totfact> 0.18232499E+12</totfact>
</mgrwt>
</event>
<event>
 4    1  0.3335341E+006  0.2114416E+01  0.7546771E-02  0.2907556E+00
         22   -1    0    0    0    0  0.00000000000E+00  0.00000000000E+00  0.16592919347E+01  0.16592919347E+01  0.00000000000E+00 0.  1.
         22   -1    0    0    0    0 -0.00000000000E+00 -0.00000000000E+00 -0.34824227502E+01  0.34824227502E+01  0.00000000000E+00 0. -1.
          2    1    1    2  501    0 -0.76522276562E+00  0.19710865118E+01 -0.21345290521E+01  0.30044914204E+01  0.25500000000E-02 0. -1.
         -2    1    1    2    0  501  0.76522276562E+00 -0.19710865118E+01  0.31139823668E+00  0.21372232645E+01  0.25500000000E-02 0.  1.
<mgrwt>
<rscale>  0 0.21144159E+01</rscale>
<asrwt>0</asrwt>
<pdfrwt beam="1">0</pdfrwt>
<pdfrwt beam="2">0</pdfrwt>
<totfact> 0.31155087E+12</totfact>
</mgrwt>
</event>
<event>
 4    1  0.3335341E+006  0.2262607E+01  0.7546771E-02  0.2823443E+00
         22   -1    0    0    0    0  0.00000000000E+00  0.00000000000E+00  0.44065109125E+02  0.44065109125E+02  0.00000000000E+00 0.  1.
         22   -1    0    0    0    0 -0.00000000000E+00 -0.00000000000E+00 -0.13270011165E+00  0.13270011165E+00  0.00000000000E+00 0. -1.
          2    1    1    2  501    0  0.22067028099E+01 -0.49984621385E+00  0.14168446850E+02  0.14347971152E+02  0.25500000000E-02 0. -1.
         -2    1    1    2    0  501 -0.22067028099E+01  0.49984621385E+00  0.29763962164E+02  0.29849838085E+02  0.25500000000E-02 0.  1.
<mgrwt>
<rscale>  0 0.22626069E+01</rscale>
<asrwt>0</asrwt>
<pdfrwt beam="1">0</pdfrwt>
<pdfrwt beam="2">0</pdfrwt>
<totfact> 0.23996805E+12</totfact>
</mgrwt>
</event>
<event>
 4    1  0.3335341E+006  0.3040989E+01  0.7546771E-02  0.2509384E+00
         22   -1    0    0    0    0  0.00000000000E+00  0.00000000000E+00  0.27870050467E+01  0.27870050467E+01  0.00000000000E+00 0.  1.
         22   -1    0    0    0    0 -0.00000000000E+00 -0.00000000000E+00 -0.53938391421E+01  0.53938391421E+01  0.00000000000E+00 0. -1.
          2    1    1    2  501    0  0.29654941096E+01 -0.67338925893E+00 -0.38409022067E+01  0.48989942511E+01  0.25500000000E-02 0. -1.
         -2    1    1    2    0  501 -0.29654941096E+01  0.67338925893E+00  0.12340681113E+01  0.32818499377E+01  0.25500000000E-02 0.  1.
<mgrwt>
<rscale>  0 0.30409891E+01</rscale>
<asrwt>0</asrwt>
<pdfrwt beam="1">0</pdfrwt>
<pdfrwt beam="2">0</pdfrwt>
<totfact> 0.10194284E+12</totfact>
</mgrwt>
</event>
<event>
 4    1  0.3335341E+006  0.4151746E+01  0.7546771E-02  0.2249193E+00
         22   -1    0    0    0    0  0.00000000000E+00  0.00000000000E+00  0.37761513698E+01  0.37761513698E+01  0.00000000000E+00 0. -1.
         22   -1    0    0    0    0 -0.00000000000E+00 -0.00000000000E+00 -0.46182818919E+01  0.46182818919E+01  0.00000000000E+00 0.  1.
          2    1    1    2  501    0 -0.39123647741E+01  0.13893854006E+01 -0.87316270669E+00  0.42425710992E+01  0.25500000000E-02 0.  1.
         -2    1    1    2    0  501  0.39123647741E+01 -0.13893854006E+01  0.31032184616E-01  0.41518621625E+01  0.25500000000E-02 0. -1.
<mgrwt>
<rscale>  0 0.41517462E+01</rscale>
<asrwt>0</asrwt>
<pdfrwt beam="1">0</pdfrwt>
<pdfrwt beam="2">0</pdfrwt>
<totfact> 0.85857880E+11</totfact>
</mgrwt>
</event>
<event>
 4    1  0.3335341E+006  0.7235425E+01  0.7546771E-02  0.1923896E+00
         22   -1    0    0    0    0  0.00000000000E+00  0.00000000000E+00  0.74813371988E+01  0.74813371988E+01  0.00000000000E+00 0.  1.
         22   -1    0    0    0    0 -0.00000000000E+00 -0.00000000000E+00 -0.98680140376E+01  0.98680140376E+01  0.00000000000E+00 0. -1.
          2    1    1    2  501    0 -0.15398158900E+01 -0.70696771433E+01 -0.58718848993E+01  0.93182834610E+01  0.25500000000E-02 0. -1.
         -2    1    1    2    0  501  0.15398158900E+01  0.70696771433E+01  0.34852080605E+01  0.80310677754E+01  0.25500000000E-02 0.  1.
<mgrwt>
<rscale>  0 0.72354250E+01</rscale>
<asrwt>0</asrwt>
<pdfrwt beam="1">0</pdfrwt>
<pdfrwt beam="2">0</pdfrwt>
<totfact> 0.15396860E+11</totfact>
</mgrwt>
</event>
<event>
 4    1  0.3335341E+006  0.2047808E+01  0.7546771E-02  0.2949184E+00
         22   -1    0    0    0    0  0.00000000000E+00  0.00000000000E+00  0.71846281641E+02  0.71846281641E+02  0.00000000000E+00 0.  1.
         22   -1    0    0    0    0 -0.00000000000E+00 -0.00000000000E+00 -0.16205319310E+00  0.16205319310E+00  0.00000000000E+00 0. -1.
          2    1    1    2  501    0  0.12032995108E+01 -0.16569792054E+01  0.70427723001E+01  0.73344500798E+01  0.25500000000E-02 0. -1.
         -2    1    1    2    0  501 -0.12032995108E+01  0.16569792054E+01  0.64641456148E+02  0.64673884754E+02  0.25500000000E-02 0.  1.
<mgrwt>
<rscale>  0 0.20478077E+01</rscale>
<asrwt>0</asrwt>
<pdfrwt beam="1">0</pdfrwt>
<pdfrwt beam="2">0</pdfrwt>
<totfact> 0.10019851E+12</totfact>
</mgrwt>
</event>
<event>
 4    1  0.3335341E+006  0.2037992E+01  0.7546771E-02  0.2955543E+00
         22   -1    0    0    0    0  0.00000000000E+00  0.00000000000E+00  0.30501033490E+01  0.30501033490E+01  0.00000000000E+00 0. -1.
         22   -1    0    0    0    0 -0.00000000000E+00 -0.00000000000E+00 -0.79663537298E+01  0.79663537298E+01  0.00000000000E+00 0.  1.
          2    1    1    2  501    0  0.17581828470E+01  0.10306289377E+01 -0.74735333505E+01  0.77464256386E+01  0.25500000000E-02 0.  1.
         -2    1    1    2    0  501 -0.17581828470E+01 -0.10306289377E+01  0.25572829697E+01  0.32700314403E+01  0.25500000000E-02 0. -1.
<mgrwt>
<rscale>  0 0.20379915E+01</rscale>
<asrwt>0</asrwt>
<pdfrwt beam="1">0</pdfrwt>
<pdfrwt beam="2">0</pdfrwt>
<totfact> 0.57596797E+11</totfact>
</mgrwt>
</event>
<event>
 4    1  0.3335341E+006  0.2232199E+01  0.7546771E-02  0.2839830E+00
         22   -1    0    0    0    0  0.00000000000E+00  0.00000000000E+00  0.26961689513E+01  0.26961689513E+01  0.00000000000E+00 0.  1.
         22   -1    0    0    0    0 -0.00000000000E+00 -0.00000000000E+00 -0.34180373403E+01  0.34180373403E+01  0.00000000000E+00 0. -1.
          2    1    1    2  501    0  0.14831020483E+01  0.16682664774E+01 -0.24328250941E+01  0.33017191228E+01  0.25500000000E-02 0. -1.
         -2    1    1    2    0  501 -0.14831020483E+01 -0.16682664774E+01  0.17109567051E+01  0.28124871688E+01  0.25500000000E-02 0.  1.
<mgrwt>
<rscale>  0 0.22321987E+01</rscale>
<asrwt>0</asrwt>
<pdfrwt beam="1">0</pdfrwt>
<pdfrwt beam="2">0</pdfrwt>
<totfact> 0.18143008E+12</totfact>
</mgrwt>
</event>
<event>
 4    1  0.3335341E+006  0.4237154E+01  0.7546771E-02  0.2234131E+00
         22   -1    0    0    0    0  0.00000000000E+00  0.00000000000E+00  0.12865955964E+02  0.12865955964E+02  0.00000000000E+00 0.  1.
         22   -1    0    0    0    0 -0.00000000000E+00 -0.00000000000E+00 -0.85325927185E+01  0.85325927185E+01  0.00000000000E+00 0. -1.
          2    1    1    2  501    0  0.40719953528E+01  0.11714601894E+01 -0.76186777132E+01  0.87176672183E+01  0.25500000000E-02 0. -1.
         -2    1    1    2    0  501 -0.40719953528E+01 -0.11714601894E+01  0.11952040958E+02  0.12680881464E+02  0.25500000000E-02 0.  1.
<mgrwt>
<rscale>  0 0.42371537E+01</rscale>
<asrwt>0</asrwt>
<pdfrwt beam="1">0</pdfrwt>
<pdfrwt beam="2">0</pdfrwt>
<totfact> 0.95210982E+10</totfact>
</mgrwt>
</event>
<event>
 4    1  0.3335341E+006  0.2255921E+01  0.7546771E-02  0.2827009E+00
         22   -1    0    0    0    0  0.00000000000E+00  0.00000000000E+00  0.10785183478E+00  0.10785183478E+00  0.00000000000E+00 0.  1.
         22   -1    0    0    0    0 -0.00000000000E+00 -0.00000000000E+00 -0.47425807811E+02  0.47425807811E+02  0.00000000000E+00 0. -1.
          2    1    1    2  501    0  0.21222833754E+01 -0.76491079465E+00 -0.21971725449E+02  0.22087233891E+02  0.25500000000E-02 0.  1.
         -2    1    1    2    0  501 -0.21222833754E+01  0.76491079465E+00 -0.25346230527E+02  0.25446425754E+02  0.25500000000E-02 0. -1.
<mgrwt>
<rscale>  0 0.22559215E+01</rscale>
<asrwt>0</asrwt>
<pdfrwt beam="1">0</pdfrwt>
<pdfrwt beam="2">0</pdfrwt>
<totfact> 0.27428312E+12</totfact>
</mgrwt>
</event>
<event>
 4    1  0.3335341E+006  0.3329217E+01  0.7546771E-02  0.2427377E+00
         22   -1    0    0    0    0  0.00000000000E+00  0.00000000000E+00  0.48794121669E+01  0.48794121669E+01  0.00000000000E+00 0.  1.
         22   -1    0    0    0    0 -0.00000000000E+00 -0.00000000000E+00 -0.26022279788E+01  0.26022279788E+01  0.00000000000E+00 0. -1.
          2    1    1    2  501    0 -0.63100293113E+00  0.32688700451E+01 -0.19497985566E+00  0.33349212461E+01  0.25500000000E-02 0. -1.
         -2    1    1    2    0  501  0.63100293113E+00 -0.32688700451E+01  0.24721640438E+01  0.41467188997E+01  0.25500000000E-02 0.  1.
<mgrwt>
<rscale>  0 0.33292165E+01</rscale>
<asrwt>0</asrwt>
<pdfrwt beam="1">0</pdfrwt>
<pdfrwt beam="2">0</pdfrwt>
<totfact> 0.12435136E+12</totfact>
</mgrwt>
</event>
<event>
 4    1  0.3335341E+006  0.2052371E+01  0.7546771E-02  0.2946249E+00
         22   -1    0    0    0    0  0.00000000000E+00  0.00000000000E+00  0.39897302074E+00  0.39897302074E+00  0.00000000000E+00 0. -1.
         22   -1    0    0    0    0 -0.00000000000E+00 -0.00000000000E+00 -0.15203847806E+03  0.15203847806E+03  0.00000000000E+00 0.  1.
          2    1    1    2  501    0 -0.12746863068E+01  0.16085375422E+01 -0.14934452592E+03  0.14935862762E+03  0.25500000000E-02 0.  1.
         -2    1    1    2    0  501  0.12746863068E+01 -0.16085375422E+01 -0.22949791280E+01  0.30788234613E+01  0.25500000000E-02 0. -1.
<mgrwt>
<rscale>  0 0.20523705E+01</rscale>
<asrwt>0</asrwt>
<pdfrwt beam="1">0</pdfrwt>
<pdfrwt beam="2">0</pdfrwt>
<totfact> 0.12628046E+11</totfact>
</mgrwt>
</event>
<event>
 4    1  0.3335341E+006  0.6984822E+01  0.7546771E-02  0.1941205E+00
         22   -1    0    0    0    0  0.00000000000E+00  0.00000000000E+00  0.10911851765E+01  0.10911851765E+01  0.00000000000E+00 0.  1.
         22   -1    0    0    0    0 -0.00000000000E+00 -0.00000000000E+00 -0.72306412586E+02  0.72306412586E+02  0.00000000000E+00 0. -1.
          2    1    1    2  501    0  0.59913024129E+01 -0.35905464920E+01 -0.58279291302E+02  0.58696367263E+02  0.25500000000E-02 0. -1.
         -2    1    1    2    0  501 -0.59913024129E+01  0.35905464920E+01 -0.12935936107E+02  0.14701230499E+02  0.25500000000E-02 0.  1.
<mgrwt>
<rscale>  0 0.69848218E+01</rscale>
<asrwt>0</asrwt>
<pdfrwt beam="1">0</pdfrwt>
<pdfrwt beam="2">0</pdfrwt>
<totfact> 0.11579849E+11</totfact>
</mgrwt>
</event>
<event>
 4    1  0.3335341E+006  0.2163320E+01  0.7546771E-02  0.2878575E+00
         22   -1    0    0    0    0  0.00000000000E+00  0.00000000000E+00  0.11603983683E+01  0.11603983683E+01  0.00000000000E+00 0.  1.
         22   -1    0    0    0    0 -0.00000000000E+00 -0.00000000000E+00 -0.98943365099E+01  0.98943365099E+01  0.00000000000E+00 0. -1.
          2    1    1    2  501    0  0.18085009761E+01 -0.11871265571E+01 -0.86212018159E+01  0.88884797629E+01  0.25500000000E-02 0. -1.
         -2    1    1    2    0  501 -0.18085009761E+01  0.11871265571E+01 -0.11273632578E+00  0.21662551153E+01  0.25500000000E-02 0.  1.
<mgrwt>
<rscale>  0 0.21633196E+01</rscale>
<asrwt>0</asrwt>
<pdfrwt beam="1">0</pdfrwt>
<pdfrwt beam="2">0</pdfrwt>
<totfact> 0.13558330E+12</totfact>
</mgrwt>
</event>
<event>
 4    1  0.3335341E+006  0.2017962E+01  0.7546771E-02  0.2968706E+00
         22   -1    0    0    0    0  0.00000000000E+00  0.00000000000E+00  0.18413277749E+02  0.18413277749E+02  0.00000000000E+00 0. -1.
         22   -1    0    0    0    0 -0.00000000000E+00 -0.00000000000E+00 -0.22612773132E+00  0.22612773132E+00  0.00000000000E+00 0.  1.
          2    1    1    2  501    0  0.46353870749E+00 -0.19640000351E+01  0.10475754797E+02  0.10668346139E+02  0.25500000000E-02 0. -1.
         -2    1    1    2    0  501 -0.46353870749E+00  0.19640000351E+01  0.77113952207E+01  0.79710593413E+01  0.25500000000E-02 0.  1.
<mgrwt>
<rscale>  0 0.20179620E+01</rscale>
<asrwt>0</asrwt>
<pdfrwt beam="1">0</pdfrwt>
<pdfrwt beam="2">0</pdfrwt>
<totfact> 0.40206505E+12</totfact>
</mgrwt>
</event>
<event>
 4    1  0.3335341E+006  0.3040697E+01  0.7546771E-02  0.2509474E+00
         22   -1    0    0    0    0  0.00000000000E+00  0.00000000000E+00  0.11914584645E+01  0.11914584645E+01  0.00000000000E+00 0. -1.
         22   -1    0    0    0    0 -0.00000000000E+00 -0.00000000000E+00 -0.16157367808E+02  0.16157367808E+02  0.00000000000E+00 0.  1.
          2    1    1    2  501    0  0.29823189211E+01 -0.59296218995E+00 -0.13736463960E+02  0.14068982867E+02  0.25500000000E-02 0.  1.
         -2    1    1    2    0  501 -0.29823189211E+01  0.59296218995E+00 -0.12294453834E+01  0.32798434047E+01  0.25500000000E-02 0. -1.
<mgrwt>
<rscale>  0 0.30406968E+01</rscale>
<asrwt>0</asrwt>
<pdfrwt beam="1">0</pdfrwt>
<pdfrwt beam="2">0</pdfrwt>
<totfact> 0.72246046E+11</totfact>
</mgrwt>
</event>
<event>
 4    1  0.3335341E+006  0.2456776E+01  0.7546771E-02  0.2727898E+00
         22   -1    0    0    0    0  0.00000000000E+00  0.00000000000E+00  0.21608692054E+00  0.21608692054E+00  0.00000000000E+00 0.  1.
         22   -1    0    0    0    0 -0.00000000000E+00 -0.00000000000E+00 -0.30769825750E+02  0.30769825750E+02  0.00000000000E+00 0. -1.
          2    1    1    2  501    0 -0.43357694489E+00 -0.24182131011E+01 -0.19981884567E+02  0.20132348619E+02  0.25500000000E-02 0. -1.
         -2    1    1    2    0  501  0.43357694489E+00  0.24182131011E+01 -0.10571854263E+02  0.10853564052E+02  0.25500000000E-02 0.  1.
<mgrwt>
<rscale>  0 0.24567764E+01</rscale>
<asrwt>0</asrwt>
<pdfrwt beam="1">0</pdfrwt>
<pdfrwt beam="2">0</pdfrwt>
<totfact> 0.22168920E+12</totfact>
</mgrwt>
</event>
<event>
 4    1  0.3335341E+006  0.2023825E+01  0.7546771E-02  0.2964826E+00
         22   -1    0    0    0    0  0.00000000000E+00  0.00000000000E+00  0.11912096454E+00  0.11912096454E+00  0.00000000000E+00 0.  1.
         22   -1    0    0    0    0 -0.00000000000E+00 -0.00000000000E+00 -0.14700293933E+03  0.14700293933E+03  0.00000000000E+00 0. -1.
          2    1    1    2  501    0 -0.76310245176E-01  0.20223840607E+01 -0.13782774214E+03  0.13784259998E+03  0.25500000000E-02 0. -1.
         -2    1    1    2    0  501  0.76310245176E-01 -0.20223840607E+01 -0.90560762226E+01  0.92794603073E+01  0.25500000000E-02 0.  1.
<mgrwt>
<rscale>  0 0.20238249E+01</rscale>
<asrwt>0</asrwt>
<pdfrwt beam="1">0</pdfrwt>
<pdfrwt beam="2">0</pdfrwt>
<totfact> 0.51212652E+11</totfact>
</mgrwt>
</event>
<event>
 4    1  0.3335341E+006  0.2688774E+01  0.7546771E-02  0.2630735E+00
         22   -1    0    0    0    0  0.00000000000E+00  0.00000000000E+00  0.96527197268E+01  0.96527197268E+01  0.00000000000E+00 0. -1.
         22   -1    0    0    0    0 -0.00000000000E+00 -0.00000000000E+00 -0.18502866213E+01  0.18502866213E+01  0.00000000000E+00 0.  1.
          2    1    1    2  501    0 -0.97041007076E+00 -0.25075489709E+01 -0.53609441340E+00  0.27416967866E+01  0.25500000000E-02 0.  1.
         -2    1    1    2    0  501  0.97041007076E+00  0.25075489709E+01  0.83385275188E+01  0.87613095615E+01  0.25500000000E-02 0. -1.
<mgrwt>
<rscale>  0 0.26887737E+01</rscale>
<asrwt>0</asrwt>
<pdfrwt beam="1">0</pdfrwt>
<pdfrwt beam="2">0</pdfrwt>
<totfact> 0.81689134E+11</totfact>
</mgrwt>
</event>
<event>
 4    1  0.3335341E+006  0.3090486E+01  0.7546771E-02  0.2494337E+00
         22   -1    0    0    0    0  0.00000000000E+00  0.00000000000E+00  0.21575749346E+00  0.21575749346E+00  0.00000000000E+00 0. -1.
         22   -1    0    0    0    0 -0.00000000000E+00 -0.00000000000E+00 -0.11680668343E+03  0.11680668343E+03  0.00000000000E+00 0.  1.
          2    1    1    2  501    0  0.14018214925E+01 -0.27542683197E+01 -0.10440500633E+03  0.10445073696E+03  0.25500000000E-02 0.  1.
         -2    1    1    2    0  501 -0.14018214925E+01  0.27542683197E+01 -0.12185919605E+02  0.12571703966E+02  0.25500000000E-02 0. -1.
<mgrwt>
<rscale>  0 0.30904860E+01</rscale>
<asrwt>0</asrwt>
<pdfrwt beam="1">0</pdfrwt>
<pdfrwt beam="2">0</pdfrwt>
<totfact> 0.36974328E+11</totfact>
</mgrwt>
</event>
<event>
 4    1  0.3335341E+006  0.2660819E+01  0.7546771E-02  0.2641613E+00
         22   -1    0    0    0    0  0.00000000000E+00  0.00000000000E+00  0.15102165678E+02  0.15102165678E+02  0.00000000000E+00 0.  1.
         22   -1    0    0    0    0 -0.00000000000E+00 -0.00000000000E+00 -0.46880569701E+00  0.46880569701E+00  0.00000000000E+00 0. -1.
          2    1    1    2  501    0  0.78827579322E+00 -0.25413720413E+01  0.73310816198E+01  0.77990201178E+01  0.25500000000E-02 0.  1.
         -2    1    1    2    0  501 -0.78827579322E+00  0.25413720413E+01  0.73022783614E+01  0.77719512575E+01  0.25500000000E-02 0. -1.
<mgrwt>
<rscale>  0 0.26608189E+01</rscale>
<asrwt>0</asrwt>
<pdfrwt beam="1">0</pdfrwt>
<pdfrwt beam="2">0</pdfrwt>
<totfact> 0.22664750E+12</totfact>
</mgrwt>
</event>
<event>
 4    1  0.3335341E+006  0.2586194E+01  0.7546771E-02  0.2671708E+00
         22   -1    0    0    0    0  0.00000000000E+00  0.00000000000E+00  0.11176896344E+01  0.11176896344E+01  0.00000000000E+00 0. -1.
         22   -1    0    0    0    0 -0.00000000000E+00 -0.00000000000E+00 -0.74730272195E+01  0.74730272195E+01  0.00000000000E+00 0.  1.
          2    1    1    2  501    0 -0.11357230753E+00 -0.25836975172E+01 -0.50949408949E+01  0.57137396471E+01  0.25500000000E-02 0.  1.
         -2    1    1    2    0  501  0.11357230753E+00  0.25836975172E+01 -0.12603966901E+01  0.28769772068E+01  0.25500000000E-02 0. -1.
<mgrwt>
<rscale>  0 0.25861937E+01</rscale>
<asrwt>0</asrwt>
<pdfrwt beam="1">0</pdfrwt>
<pdfrwt beam="2">0</pdfrwt>
<totfact> 0.19846417E+12</totfact>
</mgrwt>
</event>
<event>
 4    1  0.3335341E+006  0.2222530E+01  0.7546771E-02  0.2845129E+00
         22   -1    0    0    0    0  0.00000000000E+00  0.00000000000E+00  0.20967609976E+00  0.20967609976E+00  0.00000000000E+00 0. -1.
         22   -1    0    0    0    0 -0.00000000000E+00 -0.00000000000E+00 -0.40988321693E+02  0.40988321693E+02  0.00000000000E+00 0.  1.
          2    1    1    2  501    0 -0.21972668828E+01 -0.33414590851E+00 -0.33822021393E+02  0.33894966778E+02  0.25500000000E-02 0.  1.
         -2    1    1    2    0  501  0.21972668828E+01  0.33414590851E+00 -0.69566242000E+01  0.73030310150E+01  0.25500000000E-02 0. -1.
<mgrwt>
<rscale>  0 0.22225305E+01</rscale>
<asrwt>0</asrwt>
<pdfrwt beam="1">0</pdfrwt>
<pdfrwt beam="2">0</pdfrwt>
<totfact> 0.15847028E+12</totfact>
</mgrwt>
</event>
<event>
 4    1  0.3335341E+006  0.5060671E+01  0.7546771E-02  0.2115831E+00
         22   -1    0    0    0    0  0.00000000000E+00  0.00000000000E+00  0.39718504471E+01  0.39718504471E+01  0.00000000000E+00 0.  1.
         22   -1    0    0    0    0 -0.00000000000E+00 -0.00000000000E+00 -0.16566070497E+02  0.16566070497E+02  0.00000000000E+00 0. -1.
          2    1    1    2  501    0  0.98845178713E-02  0.50606610519E+01 -0.14322499263E+02  0.15190272533E+02  0.25500000000E-02 0. -1.
         -2    1    1    2    0  501 -0.98845178713E-02 -0.50606610519E+01  0.17282792132E+01  0.53476484110E+01  0.25500000000E-02 0.  1.
<mgrwt>
<rscale>  0 0.50606713E+01</rscale>
<asrwt>0</asrwt>
<pdfrwt beam="1">0</pdfrwt>
<pdfrwt beam="2">0</pdfrwt>
<totfact> 0.17330299E+11</totfact>
</mgrwt>
</event>
<event>
 4    1  0.3335341E+006  0.2449180E+01  0.7546771E-02  0.2731368E+00
         22   -1    0    0    0    0  0.00000000000E+00  0.00000000000E+00  0.29607732951E+01  0.29607732951E+01  0.00000000000E+00 0. -1.
         22   -1    0    0    0    0 -0.00000000000E+00 -0.00000000000E+00 -0.27016346119E+01  0.27016346119E+01  0.00000000000E+00 0.  1.
          2    1    1    2  501    0 -0.18414044336E+01  0.16148393678E+01  0.15454235667E+01  0.28960001684E+01  0.25500000000E-02 0. -1.
         -2    1    1    2    0  501  0.18414044336E+01 -0.16148393678E+01 -0.12862848836E+01  0.27664077386E+01  0.25500000000E-02 0.  1.
<mgrwt>
<rscale>  0 0.24491801E+01</rscale>
<asrwt>0</asrwt>
<pdfrwt beam="1">0</pdfrwt>
<pdfrwt beam="2">0</pdfrwt>
<totfact> 0.21412334E+12</totfact>
</mgrwt>
</event>
<event>
 4    1  0.3335341E+006  0.2543646E+01  0.7546771E-02  0.2689595E+00
         22   -1    0    0    0    0  0.00000000000E+00  0.00000000000E+00  0.63866041246E+02  0.63866041246E+02  0.00000000000E+00 0.  1.
         22   -1    0    0    0    0 -0.00000000000E+00 -0.00000000000E+00 -0.11618453739E+00  0.11618453739E+00  0.00000000000E+00 0. -1.
          2    1    1    2  501    0 -0.23919788926E+01  0.86519718447E+00  0.20427516651E+02  0.20585275616E+02  0.25500000000E-02 0. -1.
         -2    1    1    2    0  501  0.23919788926E+01 -0.86519718447E+00  0.43322340058E+02  0.43396950167E+02  0.25500000000E-02 0.  1.
<mgrwt>
<rscale>  0 0.25436461E+01</rscale>
<asrwt>0</asrwt>
<pdfrwt beam="1">0</pdfrwt>
<pdfrwt beam="2">0</pdfrwt>
<totfact> 0.17005881E+12</totfact>
</mgrwt>
</event>
<event>
 4    1  0.3335341E+006  0.2573601E+01  0.7546771E-02  0.2676945E+00
         22   -1    0    0    0    0  0.00000000000E+00  0.00000000000E+00  0.22603136650E+02  0.22603136650E+02  0.00000000000E+00 0. -1.
         22   -1    0    0    0    0 -0.00000000000E+00 -0.00000000000E+00 -0.31500604790E+00  0.31500604790E+00  0.00000000000E+00 0.  1.
          2    1    1    2  501    0  0.24974936486E+01  0.62124210164E+00  0.81174755059E+01  0.85156814974E+01  0.25500000000E-02 0. -1.
         -2    1    1    2    0  501 -0.24974936486E+01 -0.62124210164E+00  0.14170655096E+02  0.14402461201E+02  0.25500000000E-02 0.  1.
<mgrwt>
<rscale>  0 0.25736011E+01</rscale>
<asrwt>0</asrwt>
<pdfrwt beam="1">0</pdfrwt>
<pdfrwt beam="2">0</pdfrwt>
<totfact> 0.21479418E+12</totfact>
</mgrwt>
</event>
<event>
 4    1  0.3335341E+006  0.2052388E+01  0.7546771E-02  0.2946238E+00
         22   -1    0    0    0    0  0.00000000000E+00  0.00000000000E+00  0.23685059784E+01  0.23685059784E+01  0.00000000000E+00 0. -1.
         22   -1    0    0    0    0 -0.00000000000E+00 -0.00000000000E+00 -0.37084274796E+01  0.37084274796E+01  0.00000000000E+00 0.  1.
          2    1    1    2  501    0  0.13764710696E+01 -0.15223723173E+01 -0.28619298230E+01  0.35217806422E+01  0.25500000000E-02 0.  1.
         -2    1    1    2    0  501 -0.13764710696E+01  0.15223723173E+01  0.15220083218E+01  0.25551528158E+01  0.25500000000E-02 0. -1.
<mgrwt>
<rscale>  0 0.20523880E+01</rscale>
<asrwt>0</asrwt>
<pdfrwt beam="1">0</pdfrwt>
<pdfrwt beam="2">0</pdfrwt>
<totfact> 0.19169724E+12</totfact>
</mgrwt>
</event>
<event>
 4    1  0.3335341E+006  0.2472561E+01  0.7546771E-02  0.2720752E+00
         22   -1    0    0    0    0  0.00000000000E+00  0.00000000000E+00  0.18226694959E+02  0.18226694959E+02  0.00000000000E+00 0.  1.
         22   -1    0    0    0    0 -0.00000000000E+00 -0.00000000000E+00 -0.27719349335E+01  0.27719349335E+01  0.00000000000E+00 0. -1.
          2    1    1    2  501    0 -0.24428575713E+01 -0.38209740727E+00 -0.21162250680E+01  0.32545301632E+01  0.25500000000E-02 0. -1.
         -2    1    1    2    0  501  0.24428575713E+01  0.38209740727E+00  0.17570985093E+02  0.17744099729E+02  0.25500000000E-02 0.  1.
<mgrwt>
<rscale>  0 0.24725610E+01</rscale>
<asrwt>0</asrwt>
<pdfrwt beam="1">0</pdfrwt>
<pdfrwt beam="2">0</pdfrwt>
<totfact> 0.23460756E+11</totfact>
</mgrwt>
</event>
<event>
 4    1  0.3335341E+006  0.2514014E+01  0.7546771E-02  0.2702384E+00
         22   -1    0    0    0    0  0.00000000000E+00  0.00000000000E+00  0.52801733329E+01  0.52801733329E+01  0.00000000000E+00 0.  1.
         22   -1    0    0    0    0 -0.00000000000E+00 -0.00000000000E+00 -0.11976427148E+01  0.11976427148E+01  0.00000000000E+00 0. -1.
          2    1    1    2  501    0  0.15204855850E+00  0.25094103745E+01  0.21174137928E+01  0.32868992780E+01  0.25500000000E-02 0. -1.
         -2    1    1    2    0  501 -0.15204855850E+00 -0.25094103745E+01  0.19651168253E+01  0.31909167697E+01  0.25500000000E-02 0.  1.
<mgrwt>
<rscale>  0 0.25140139E+01</rscale>
<asrwt>0</asrwt>
<pdfrwt beam="1">0</pdfrwt>
<pdfrwt beam="2">0</pdfrwt>
<totfact> 0.27743176E+12</totfact>
</mgrwt>
</event>
<event>
 4    1  0.3335341E+006  0.2329795E+01  0.7546771E-02  0.2788681E+00
         22   -1    0    0    0    0  0.00000000000E+00  0.00000000000E+00  0.16384542684E+00  0.16384542684E+00  0.00000000000E+00 0. -1.
         22   -1    0    0    0    0 -0.00000000000E+00 -0.00000000000E+00 -0.35959032865E+02  0.35959032865E+02  0.00000000000E+00 0.  1.
          2    1    1    2  501    0  0.18729192084E+00 -0.23222531453E+01 -0.22965009804E+02  0.23082885862E+02  0.25500000000E-02 0.  1.
         -2    1    1    2    0  501 -0.18729192084E+00  0.23222531453E+01 -0.12830177635E+02  0.13039992430E+02  0.25500000000E-02 0. -1.
<mgrwt>
<rscale>  0 0.23297949E+01</rscale>
<asrwt>0</asrwt>
<pdfrwt beam="1">0</pdfrwt>
<pdfrwt beam="2">0</pdfrwt>
<totfact> 0.24713015E+12</totfact>
</mgrwt>
</event>
<event>
 4    1  0.3335341E+006  0.2375280E+01  0.7546771E-02  0.2766206E+00
         22   -1    0    0    0    0  0.00000000000E+00  0.00000000000E+00  0.16271256605E+01  0.16271256605E+01  0.00000000000E+00 0.  1.
         22   -1    0    0    0    0 -0.00000000000E+00 -0.00000000000E+00 -0.25426706133E+02  0.25426706133E+02  0.00000000000E+00 0. -1.
          2    1    1    2  501    0 -0.22623001570E+01 -0.72384243200E+00 -0.24470583227E+02  0.24585593339E+02  0.25500000000E-02 0. -1.
         -2    1    1    2    0  501  0.22623001570E+01  0.72384243200E+00  0.67100275479E+00  0.24682384541E+01  0.25500000000E-02 0.  1.
<mgrwt>
<rscale>  0 0.23752803E+01</rscale>
<asrwt>0</asrwt>
<pdfrwt beam="1">0</pdfrwt>
<pdfrwt beam="2">0</pdfrwt>
<totfact> 0.28676373E+11</totfact>
</mgrwt>
</event>
<event>
 4    1  0.3335341E+006  0.2440241E+01  0.7546771E-02  0.2735477E+00
         22   -1    0    0    0    0  0.00000000000E+00  0.00000000000E+00  0.48028932649E+02  0.48028932649E+02  0.00000000000E+00 0. -1.
         22   -1    0    0    0    0 -0.00000000000E+00 -0.00000000000E+00 -0.12399010897E+00  0.12399010897E+00  0.00000000000E+00 0.  1.
          2    1    1    2  501    0  0.23797039995E+01 -0.54016640888E+00  0.24133109561E+02  0.24256169410E+02  0.25500000000E-02 0.  1.
         -2    1    1    2    0  501 -0.23797039995E+01  0.54016640888E+00  0.23771832979E+02  0.23896753348E+02  0.25500000000E-02 0. -1.
<mgrwt>
<rscale>  0 0.24402413E+01</rscale>
<asrwt>0</asrwt>
<pdfrwt beam="1">0</pdfrwt>
<pdfrwt beam="2">0</pdfrwt>
<totfact> 0.23113145E+12</totfact>
</mgrwt>
</event>
<event>
 4    1  0.3335341E+006  0.2008185E+01  0.7546771E-02  0.2975224E+00
         22   -1    0    0    0    0  0.00000000000E+00  0.00000000000E+00  0.58910858554E+00  0.58910858554E+00  0.00000000000E+00 0.  1.
         22   -1    0    0    0    0 -0.00000000000E+00 -0.00000000000E+00 -0.14345957362E+02  0.14345957362E+02  0.00000000000E+00 0. -1.
          2    1    1    2  501    0  0.15855064547E+01  0.12324655678E+01 -0.12277917879E+02  0.12441064104E+02  0.25500000000E-02 0. -1.
         -2    1    1    2    0  501 -0.15855064547E+01 -0.12324655678E+01 -0.14789308974E+01  0.24940018435E+01  0.25500000000E-02 0.  1.
<mgrwt>
<rscale>  0 0.20081854E+01</rscale>
<asrwt>0</asrwt>
<pdfrwt beam="1">0</pdfrwt>
<pdfrwt beam="2">0</pdfrwt>
<totfact> 0.18647780E+12</totfact>
</mgrwt>
</event>
<event>
 4    1  0.3335341E+006  0.2178181E+01  0.7546771E-02  0.2870016E+00
         22   -1    0    0    0    0  0.00000000000E+00  0.00000000000E+00  0.72752279857E+01  0.72752279857E+01  0.00000000000E+00 0.  1.
         22   -1    0    0    0    0 -0.00000000000E+00 -0.00000000000E+00 -0.29099746393E+01  0.29099746393E+01  0.00000000000E+00 0. -1.
          2    1    1    2  501    0  0.78122494322E+00 -0.20332615710E+01 -0.23031854868E+01  0.31700370530E+01  0.25500000000E-02 0. -1.
         -2    1    1    2    0  501 -0.78122494322E+00  0.20332615710E+01  0.66684388333E+01  0.70151655721E+01  0.25500000000E-02 0.  1.
<mgrwt>
<rscale>  0 0.21781808E+01</rscale>
<asrwt>0</asrwt>
<pdfrwt beam="1">0</pdfrwt>
<pdfrwt beam="2">0</pdfrwt>
<totfact> 0.67849622E+11</totfact>
</mgrwt>
</event>
<event>
 4    1  0.3335341E+006  0.3839496E+01  0.7546771E-02  0.2309067E+00
         22   -1    0    0    0    0  0.00000000000E+00  0.00000000000E+00  0.52751782662E+01  0.52751782662E+01  0.00000000000E+00 0. -1.
         22   -1    0    0    0    0 -0.00000000000E+00 -0.00000000000E+00 -0.27974185361E+01  0.27974185361E+01  0.00000000000E+00 0.  1.
          2    1    1    2  501    0  0.26353904616E+01  0.27922105546E+01  0.13682175741E+01  0.40759966265E+01  0.25500000000E-02 0.  1.
         -2    1    1    2    0  501 -0.26353904616E+01 -0.27922105546E+01  0.11095421559E+01  0.39966001757E+01  0.25500000000E-02 0. -1.
<mgrwt>
<rscale>  0 0.38394960E+01</rscale>
<asrwt>0</asrwt>
<pdfrwt beam="1">0</pdfrwt>
<pdfrwt beam="2">0</pdfrwt>
<totfact> 0.10421505E+12</totfact>
</mgrwt>
</event>
<event>
 4    1  0.3335341E+006  0.2227786E+01  0.7546771E-02  0.2842243E+00
         22   -1    0    0    0    0  0.00000000000E+00  0.00000000000E+00  0.68302403505E+00  0.68302403505E+00  0.00000000000E+00 0. -1.
         22   -1    0    0    0    0 -0.00000000000E+00 -0.00000000000E+00 -0.12608007113E+02  0.12608007113E+02  0.00000000000E+00 0.  1.
          2    1    1    2  501    0 -0.49219710844E+00 -0.21727319483E+01 -0.10288100092E+02  0.10526539418E+02  0.25500000000E-02 0.  1.
         -2    1    1    2    0  501  0.49219710844E+00  0.21727319483E+01 -0.16368829857E+01  0.27644917298E+01  0.25500000000E-02 0. -1.
<mgrwt>
<rscale>  0 0.22277856E+01</rscale>
<asrwt>0</asrwt>
<pdfrwt beam="1">0</pdfrwt>
<pdfrwt beam="2">0</pdfrwt>
<totfact> 0.18473474E+12</totfact>
</mgrwt>
</event>
<event>
 4    1  0.3335341E+006  0.2245498E+01  0.7546771E-02  0.2832611E+00
         22   -1    0    0    0    0  0.00000000000E+00  0.00000000000E+00  0.42197278838E+00  0.42197278838E+00  0.00000000000E+00 0. -1.
         22   -1    0    0    0    0 -0.00000000000E+00 -0.00000000000E+00 -0.24125534487E+02  0.24125534487E+02  0.00000000000E+00 0.  1.
          2    1    1    2  501    0  0.81589656418E+00 -0.20920247632E+01 -0.20571373515E+02  0.20693565899E+02  0.25500000000E-02 0.  1.
         -2    1    1    2    0  501 -0.81589656418E+00  0.20920247632E+01 -0.31321881835E+01  0.38539413764E+01  0.25500000000E-02 0. -1.
<mgrwt>
<rscale>  0 0.22454980E+01</rscale>
<asrwt>0</asrwt>
<pdfrwt beam="1">0</pdfrwt>
<pdfrwt beam="2">0</pdfrwt>
<totfact> 0.14246033E+12</totfact>
</mgrwt>
</event>
<event>
 4    1  0.3335341E+006  0.3083140E+01  0.7546771E-02  0.2496542E+00
         22   -1    0    0    0    0  0.00000000000E+00  0.00000000000E+00  0.94329472463E+00  0.94329472463E+00  0.00000000000E+00 0. -1.
         22   -1    0    0    0    0 -0.00000000000E+00 -0.00000000000E+00 -0.10211041473E+02  0.10211041473E+02  0.00000000000E+00 0.  1.
          2    1    1    2  501    0  0.29058731087E+01 -0.10303639378E+01 -0.52724299765E+01  0.61077223846E+01  0.25500000000E-02 0. -1.
         -2    1    1    2    0  501 -0.29058731087E+01  0.10303639378E+01 -0.39953167721E+01  0.50466138133E+01  0.25500000000E-02 0.  1.
<mgrwt>
<rscale>  0 0.30831404E+01</rscale>
<asrwt>0</asrwt>
<pdfrwt beam="1">0</pdfrwt>
<pdfrwt beam="2">0</pdfrwt>
<totfact> 0.16537859E+12</totfact>
</mgrwt>
</event>
<event>
 4    1  0.3335341E+006  0.2040870E+01  0.7546771E-02  0.2953672E+00
         22   -1    0    0    0    0  0.00000000000E+00  0.00000000000E+00  0.91600791872E+01  0.91600791872E+01  0.00000000000E+00 0.  1.
         22   -1    0    0    0    0 -0.00000000000E+00 -0.00000000000E+00 -0.50134489868E+00  0.50134489868E+00  0.00000000000E+00 0. -1.
          2    1    1    2  501    0  0.64559734851E+00  0.19360653978E+01  0.28559945990E+01  0.35102502493E+01  0.25500000000E-02 0. -1.
         -2    1    1    2    0  501 -0.64559734851E+00 -0.19360653978E+01  0.58027396895E+01  0.61511738365E+01  0.25500000000E-02 0.  1.
<mgrwt>
<rscale>  0 0.20408703E+01</rscale>
<asrwt>0</asrwt>
<pdfrwt beam="1">0</pdfrwt>
<pdfrwt beam="2">0</pdfrwt>
<totfact> 0.38638383E+12</totfact>
</mgrwt>
</event>
<event>
 4    1  0.3335341E+006  0.2392726E+01  0.7546771E-02  0.2757800E+00
         22   -1    0    0    0    0  0.00000000000E+00  0.00000000000E+00  0.80724060466E+02  0.80724060466E+02  0.00000000000E+00 0.  1.
         22   -1    0    0    0    0 -0.00000000000E+00 -0.00000000000E+00 -0.13552144593E+00  0.13552144593E+00  0.00000000000E+00 0. -1.
          2    1    1    2  501    0 -0.15863053043E+00 -0.23874608630E+01  0.12380998936E+02  0.12610086208E+02  0.25500000000E-02 0.  1.
         -2    1    1    2    0  501  0.15863053043E+00  0.23874608630E+01  0.68207540084E+02  0.68249495704E+02  0.25500000000E-02 0. -1.
<mgrwt>
<rscale>  0 0.23927264E+01</rscale>
<asrwt>0</asrwt>
<pdfrwt beam="1">0</pdfrwt>
<pdfrwt beam="2">0</pdfrwt>
<totfact> 0.10423635E+12</totfact>
</mgrwt>
</event>
<event>
 4    1  0.3335341E+006  0.2403599E+01  0.7546771E-02  0.2752619E+00
         22   -1    0    0    0    0  0.00000000000E+00  0.00000000000E+00  0.37100327553E+01  0.37100327553E+01  0.00000000000E+00 0. -1.
         22   -1    0    0    0    0 -0.00000000000E+00 -0.00000000000E+00 -0.16091103999E+01  0.16091103999E+01  0.00000000000E+00 0.  1.
          2    1    1    2  501    0 -0.15729659656E+01 -0.18174317770E+01  0.57280077705E+00  0.24709082188E+01  0.25500000000E-02 0.  1.
         -2    1    1    2    0  501  0.15729659656E+01  0.18174317770E+01  0.15281215784E+01  0.28482349365E+01  0.25500000000E-02 0. -1.
<mgrwt>
<rscale>  0 0.24035987E+01</rscale>
<asrwt>0</asrwt>
<pdfrwt beam="1">0</pdfrwt>
<pdfrwt beam="2">0</pdfrwt>
<totfact> 0.29967906E+12</totfact>
</mgrwt>
</event>
<event>
 4    1  0.3335341E+006  0.8108613E+01  0.7546771E-02  0.1870069E+00
         22   -1    0    0    0    0  0.00000000000E+00  0.00000000000E+00  0.23468614618E+01  0.23468614618E+01  0.00000000000E+00 0. -1.
         22   -1    0    0    0    0 -0.00000000000E+00 -0.00000000000E+00 -0.28148975108E+02  0.28148975108E+02  0.00000000000E+00 0.  1.
          2    1    1    2  501    0 -0.80616727361E+01  0.87122536335E+00 -0.13949170674E+02  0.16134713197E+02  0.25500000000E-02 0.  1.
         -2    1    1    2    0  501  0.80616727361E+01 -0.87122536335E+00 -0.11852942972E+02  0.14361123373E+02  0.25500000000E-02 0. -1.
<mgrwt>
<rscale>  0 0.81086132E+01</rscale>
<asrwt>0</asrwt>
<pdfrwt beam="1">0</pdfrwt>
<pdfrwt beam="2">0</pdfrwt>
<totfact> 0.16504146E+11</totfact>
</mgrwt>
</event>
<event>
 4    1  0.3335341E+006  0.2302325E+01  0.7546771E-02  0.2802661E+00
         22   -1    0    0    0    0  0.00000000000E+00  0.00000000000E+00  0.27411221706E+00  0.27411221706E+00  0.00000000000E+00 0. -1.
         22   -1    0    0    0    0 -0.00000000000E+00 -0.00000000000E+00 -0.20528063046E+02  0.20528063046E+02  0.00000000000E+00 0.  1.
          2    1    1    2  501    0  0.12674830520E+01  0.19220255646E+01 -0.12631602055E+02  0.12839706871E+02  0.25500000000E-02 0.  1.
         -2    1    1    2    0  501 -0.12674830520E+01 -0.19220255646E+01 -0.76223487737E+01  0.79624683916E+01  0.25500000000E-02 0. -1.
<mgrwt>
<rscale>  0 0.23023254E+01</rscale>
<asrwt>0</asrwt>
<pdfrwt beam="1">0</pdfrwt>
<pdfrwt beam="2">0</pdfrwt>
<totfact> 0.28316938E+12</totfact>
</mgrwt>
</event>
<event>
 4    1  0.3335341E+006  0.2587275E+01  0.7546771E-02  0.2671260E+00
         22   -1    0    0    0    0  0.00000000000E+00  0.00000000000E+00  0.24909296552E+00  0.24909296552E+00  0.00000000000E+00 0. -1.
         22   -1    0    0    0    0 -0.00000000000E+00 -0.00000000000E+00 -0.33522210167E+02  0.33522210167E+02  0.00000000000E+00 0.  1.
          2    1    1    2  501    0 -0.25808719662E+01  0.18190013039E+00 -0.24156612072E+02  0.24294771065E+02  0.25500000000E-02 0. -1.
         -2    1    1    2    0  501  0.25808719662E+01 -0.18190013039E+00 -0.91165051294E+01  0.94765320682E+01  0.25500000000E-02 0.  1.
<mgrwt>
<rscale>  0 0.25872755E+01</rscale>
<asrwt>0</asrwt>
<pdfrwt beam="1">0</pdfrwt>
<pdfrwt beam="2">0</pdfrwt>
<totfact> 0.16949074E+12</totfact>
</mgrwt>
</event>
<event>
 4    1  0.3335341E+006  0.3629220E+01  0.7546771E-02  0.2354318E+00
         22   -1    0    0    0    0  0.00000000000E+00  0.00000000000E+00  0.10694697016E+02  0.10694697016E+02  0.00000000000E+00 0. -1.
         22   -1    0    0    0    0 -0.00000000000E+00 -0.00000000000E+00 -0.12444359953E+01  0.12444359953E+01  0.00000000000E+00 0.  1.
          2    1    1    2  501    0 -0.80439233928E+00 -0.35389525626E+01  0.41180807048E+01  0.54890643528E+01  0.25500000000E-02 0. -1.
         -2    1    1    2    0  501  0.80439233928E+00  0.35389525626E+01  0.53321803161E+01  0.64500686587E+01  0.25500000000E-02 0.  1.
<mgrwt>
<rscale>  0 0.36292201E+01</rscale>
<asrwt>0</asrwt>
<pdfrwt beam="1">0</pdfrwt>
<pdfrwt beam="2">0</pdfrwt>
<totfact> 0.11389364E+12</totfact>
</mgrwt>
</event>
<event>
 4    1  0.3335341E+006  0.2048110E+01  0.7546771E-02  0.2948990E+00
         22   -1    0    0    0    0  0.00000000000E+00  0.00000000000E+00  0.32401645368E+01  0.32401645368E+01  0.00000000000E+00 0.  1.
         22   -1    0    0    0    0 -0.00000000000E+00 -0.00000000000E+00 -0.19075754445E+01  0.19075754445E+01  0.00000000000E+00 0. -1.
          2    1    1    2  501    0 -0.20136087672E+01  0.37433526170E+00 -0.79273227810E+00  0.21961735184E+01  0.25500000000E-02 0. -1.
         -2    1    1    2    0  501  0.20136087672E+01 -0.37433526170E+00  0.21253213704E+01  0.29515664630E+01  0.25500000000E-02 0.  1.
<mgrwt>
<rscale>  0 0.20481098E+01</rscale>
<asrwt>0</asrwt>
<pdfrwt beam="1">0</pdfrwt>
<pdfrwt beam="2">0</pdfrwt>
<totfact> 0.28859036E+12</totfact>
</mgrwt>
</event>
<event>
 4    1  0.3335341E+006  0.2475409E+01  0.7546771E-02  0.2719472E+00
         22   -1    0    0    0    0  0.00000000000E+00  0.00000000000E+00  0.13843795710E+01  0.13843795710E+01  0.00000000000E+00 0. -1.
         22   -1    0    0    0    0 -0.00000000000E+00 -0.00000000000E+00 -0.10727312778E+02  0.10727312778E+02  0.00000000000E+00 0.  1.
          2    1    1    2  501    0 -0.70948094376E+00  0.23715569598E+01 -0.93127193560E+01  0.96360984807E+01  0.25500000000E-02 0.  1.
         -2    1    1    2    0  501  0.70948094376E+00 -0.23715569598E+01 -0.30213851269E-01  0.24755938686E+01  0.25500000000E-02 0. -1.
<mgrwt>
<rscale>  0 0.24754095E+01</rscale>
<asrwt>0</asrwt>
<pdfrwt beam="1">0</pdfrwt>
<pdfrwt beam="2">0</pdfrwt>
<totfact> 0.10040696E+12</totfact>
</mgrwt>
</event>
<event>
 4    1  0.3335341E+006  0.2176141E+01  0.7546771E-02  0.2871184E+00
         22   -1    0    0    0    0  0.00000000000E+00  0.00000000000E+00  0.13103594687E+00  0.13103594687E+00  0.00000000000E+00 0.  1.
         22   -1    0    0    0    0 -0.00000000000E+00 -0.00000000000E+00 -0.60428233006E+02  0.60428233006E+02  0.00000000000E+00 0. -1.
          2    1    1    2  501    0 -0.20369649055E+01  0.76574019511E+00 -0.10951660935E+02  0.11165772155E+02  0.25500000000E-02 0.  1.
         -2    1    1    2    0  501  0.20369649055E+01 -0.76574019511E+00 -0.49345536124E+02  0.49393496798E+02  0.25500000000E-02 0. -1.
<mgrwt>
<rscale>  0 0.21761412E+01</rscale>
<asrwt>0</asrwt>
<pdfrwt beam="1">0</pdfrwt>
<pdfrwt beam="2">0</pdfrwt>
<totfact> 0.16027579E+12</totfact>
</mgrwt>
</event>
<event>
 4    1  0.3335341E+006  0.2651683E+01  0.7546771E-02  0.2645213E+00
         22   -1    0    0    0    0  0.00000000000E+00  0.00000000000E+00  0.29102949540E+00  0.29102949540E+00  0.00000000000E+00 0.  1.
         22   -1    0    0    0    0 -0.00000000000E+00 -0.00000000000E+00 -0.25792015582E+02  0.25792015582E+02  0.00000000000E+00 0. -1.
          2    1    1    2  501    0 -0.14606046348E+01 -0.22131538783E+01 -0.16030534030E+02  0.16248367419E+02  0.25500000000E-02 0. -1.
         -2    1    1    2    0  501  0.14606046348E+01  0.22131538783E+01 -0.94704520563E+01  0.98346776583E+01  0.25500000000E-02 0.  1.
<mgrwt>
<rscale>  0 0.26516830E+01</rscale>
<asrwt>0</asrwt>
<pdfrwt beam="1">0</pdfrwt>
<pdfrwt beam="2">0</pdfrwt>
<totfact> 0.19879976E+12</totfact>
</mgrwt>
</event>
<event>
 4    1  0.3335341E+006  0.2306593E+01  0.7546771E-02  0.2800468E+00
         22   -1    0    0    0    0  0.00000000000E+00  0.00000000000E+00  0.51592400044E+02  0.51592400044E+02  0.00000000000E+00 0.  1.
         22   -1    0    0    0    0 -0.00000000000E+00 -0.00000000000E+00 -0.10860815158E+00  0.10860815158E+00  0.00000000000E+00 0. -1.
          2    1    1    2  501    0 -0.11426589228E+01  0.20036704504E+01  0.19932568040E+02  0.20065583467E+02  0.25500000000E-02 0.  1.
         -2    1    1    2    0  501  0.11426589228E+01 -0.20036704504E+01  0.31551223852E+02  0.31635424728E+02  0.25500000000E-02 0. -1.
<mgrwt>
<rscale>  0 0.23065930E+01</rscale>
<asrwt>0</asrwt>
<pdfrwt beam="1">0</pdfrwt>
<pdfrwt beam="2">0</pdfrwt>
<totfact> 0.24358333E+12</totfact>
</mgrwt>
</event>
<event>
 4    1  0.3335341E+006  0.2051548E+01  0.7546771E-02  0.2946777E+00
         22   -1    0    0    0    0  0.00000000000E+00  0.00000000000E+00  0.52755686244E+00  0.52755686244E+00  0.00000000000E+00 0. -1.
         22   -1    0    0    0    0 -0.00000000000E+00 -0.00000000000E+00 -0.13255856804E+02  0.13255856804E+02  0.00000000000E+00 0.  1.
          2    1    1    2  501    0 -0.15131444650E+01  0.13853645410E+01 -0.10712773156E+02  0.10907444993E+02  0.25500000000E-02 0.  1.
         -2    1    1    2    0  501  0.15131444650E+01 -0.13853645410E+01 -0.20155267851E+01  0.28759686729E+01  0.25500000000E-02 0. -1.
<mgrwt>
<rscale>  0 0.20515476E+01</rscale>
<asrwt>0</asrwt>
<pdfrwt beam="1">0</pdfrwt>
<pdfrwt beam="2">0</pdfrwt>
<totfact> 0.23277164E+12</totfact>
</mgrwt>
</event>
<event>
 4    1  0.3335341E+006  0.2698144E+01  0.7546771E-02  0.2627135E+00
         22   -1    0    0    0    0  0.00000000000E+00  0.00000000000E+00  0.37485347359E+02  0.37485347359E+02  0.00000000000E+00 0. -1.
         22   -1    0    0    0    0 -0.00000000000E+00 -0.00000000000E+00 -0.40531633598E+00  0.40531633598E+00  0.00000000000E+00 0.  1.
          2    1    1    2  501    0 -0.10932287734E+01 -0.24667442525E+01  0.48672277812E+01  0.55650596704E+01  0.25500000000E-02 0.  1.
         -2    1    1    2    0  501  0.10932287734E+01  0.24667442525E+01  0.32212803242E+02  0.32325604025E+02  0.25500000000E-02 0. -1.
<mgrwt>
<rscale>  0 0.26981443E+01</rscale>
<asrwt>0</asrwt>
<pdfrwt beam="1">0</pdfrwt>
<pdfrwt beam="2">0</pdfrwt>
<totfact> 0.84998683E+11</totfact>
</mgrwt>
</event>
<event>
 4    1  0.3335341E+006  0.2219344E+01  0.7546771E-02  0.2846886E+00
         22   -1    0    0    0    0  0.00000000000E+00  0.00000000000E+00  0.19546048077E+02  0.19546048077E+02  0.00000000000E+00 0.  1.
         22   -1    0    0    0    0 -0.00000000000E+00 -0.00000000000E+00 -0.34604518614E+00  0.34604518614E+00  0.00000000000E+00 0. -1.
          2    1    1    2  501    0  0.11217833311E+01  0.19149627431E+01  0.44147926904E+01  0.49412428752E+01  0.25500000000E-02 0. -1.
         -2    1    1    2    0  501 -0.11217833311E+01 -0.19149627431E+01  0.14785210201E+02  0.14950850388E+02  0.25500000000E-02 0.  1.
<mgrwt>
<rscale>  0 0.22193437E+01</rscale>
<asrwt>0</asrwt>
<pdfrwt beam="1">0</pdfrwt>
<pdfrwt beam="2">0</pdfrwt>
<totfact> 0.23177932E+12</totfact>
</mgrwt>
</event>
<event>
 4    1  0.3335341E+006  0.2140167E+01  0.7546771E-02  0.2892136E+00
         22   -1    0    0    0    0  0.00000000000E+00  0.00000000000E+00  0.50095716335E+02  0.50095716335E+02  0.00000000000E+00 0. -1.
         22   -1    0    0    0    0 -0.00000000000E+00 -0.00000000000E+00 -0.27220987556E+00  0.27220987556E+00  0.00000000000E+00 0.  1.
          2    1    1    2  501    0 -0.10564136472E+01  0.18612626443E+01  0.43885260328E+01  0.48825685523E+01  0.25500000000E-02 0.  1.
         -2    1    1    2    0  501  0.10564136472E+01 -0.18612626443E+01  0.45434980427E+02  0.45485357659E+02  0.25500000000E-02 0. -1.
<mgrwt>
<rscale>  0 0.21401670E+01</rscale>
<asrwt>0</asrwt>
<pdfrwt beam="1">0</pdfrwt>
<pdfrwt beam="2">0</pdfrwt>
<totfact> 0.91014287E+11</totfact>
</mgrwt>
</event>
<event>
 4    1  0.3335341E+006  0.3178586E+01  0.7546771E-02  0.2468590E+00
         22   -1    0    0    0    0  0.00000000000E+00  0.00000000000E+00  0.13108066059E+01  0.13108066059E+01  0.00000000000E+00 0.  1.
         22   -1    0    0    0    0 -0.00000000000E+00 -0.00000000000E+00 -0.78725413431E+01  0.78725413431E+01  0.00000000000E+00 0. -1.
          2    1    1    2  501    0 -0.25351083193E+01  0.19174534105E+01 -0.26166015574E+01  0.41170392256E+01  0.25500000000E-02 0.  1.
         -2    1    1    2    0  501  0.25351083193E+01 -0.19174534105E+01 -0.39451331798E+01  0.50663087234E+01  0.25500000000E-02 0. -1.
<mgrwt>
<rscale>  0 0.31785859E+01</rscale>
<asrwt>0</asrwt>
<pdfrwt beam="1">0</pdfrwt>
<pdfrwt beam="2">0</pdfrwt>
<totfact> 0.15532323E+12</totfact>
</mgrwt>
</event>
<event>
 4    1  0.3335341E+006  0.2556252E+01  0.7546771E-02  0.2684238E+00
         22   -1    0    0    0    0  0.00000000000E+00  0.00000000000E+00  0.97894717457E+00  0.97894717457E+00  0.00000000000E+00 0. -1.
         22   -1    0    0    0    0 -0.00000000000E+00 -0.00000000000E+00 -0.71956454795E+01  0.71956454795E+01  0.00000000000E+00 0.  1.
          2    1    1    2  501    0 -0.17228088491E+01 -0.18884774498E+01 -0.20088549343E+01  0.32511416547E+01  0.25500000000E-02 0. -1.
         -2    1    1    2    0  501  0.17228088491E+01  0.18884774498E+01 -0.42078433707E+01  0.49234509994E+01  0.25500000000E-02 0.  1.
<mgrwt>
<rscale>  0 0.25562519E+01</rscale>
<asrwt>0</asrwt>
<pdfrwt beam="1">0</pdfrwt>
<pdfrwt beam="2">0</pdfrwt>
<totfact> 0.24162726E+12</totfact>
</mgrwt>
</event>
<event>
 4    1  0.3335341E+006  0.2597271E+01  0.7546771E-02  0.2667140E+00
         22   -1    0    0    0    0  0.00000000000E+00  0.00000000000E+00  0.15435531927E+01  0.15435531927E+01  0.00000000000E+00 0.  1.
         22   -1    0    0    0    0 -0.00000000000E+00 -0.00000000000E+00 -0.46107588257E+01  0.46107588257E+01  0.00000000000E+00 0. -1.
          2    1    1    2  501    0 -0.13241300825E+01  0.22343882548E+01 -0.83090649282E+00  0.27269439765E+01  0.25500000000E-02 0.  1.
         -2    1    1    2    0  501  0.13241300825E+01 -0.22343882548E+01 -0.22362991401E+01  0.34273680420E+01  0.25500000000E-02 0. -1.
<mgrwt>
<rscale>  0 0.25972712E+01</rscale>
<asrwt>0</asrwt>
<pdfrwt beam="1">0</pdfrwt>
<pdfrwt beam="2">0</pdfrwt>
<totfact> 0.24338233E+12</totfact>
</mgrwt>
</event>
<event>
 4    1  0.3335341E+006  0.2711796E+01  0.7546771E-02  0.2621931E+00
         22   -1    0    0    0    0  0.00000000000E+00  0.00000000000E+00  0.10652233839E+02  0.10652233839E+02  0.00000000000E+00 0.  1.
         22   -1    0    0    0    0 -0.00000000000E+00 -0.00000000000E+00 -0.83256335620E+00  0.83256335620E+00  0.00000000000E+00 0. -1.
          2    1    1    2  501    0  0.61611624452E+00 -0.26408771059E+01  0.25365762439E+01  0.37132272566E+01  0.25500000000E-02 0. -1.
         -2    1    1    2    0  501 -0.61611624452E+00  0.26408771059E+01  0.72830942384E+01  0.77715699382E+01  0.25500000000E-02 0.  1.
<mgrwt>
<rscale>  0 0.27117960E+01</rscale>
<asrwt>0</asrwt>
<pdfrwt beam="1">0</pdfrwt>
<pdfrwt beam="2">0</pdfrwt>
<totfact> 0.18113155E+12</totfact>
</mgrwt>
</event>
<event>
 4    1  0.3335341E+006  0.2537389E+01  0.7546771E-02  0.2692273E+00
         22   -1    0    0    0    0  0.00000000000E+00  0.00000000000E+00  0.19822264614E+01  0.19822264614E+01  0.00000000000E+00 0. -1.
         22   -1    0    0    0    0 -0.00000000000E+00 -0.00000000000E+00 -0.32551083268E+01  0.32551083268E+01  0.00000000000E+00 0.  1.
          2    1    1    2  501    0  0.25333998649E+01  0.14219362098E+00 -0.75851335021E+00  0.26483358749E+01  0.25500000000E-02 0.  1.
         -2    1    1    2    0  501 -0.25333998649E+01 -0.14219362098E+00 -0.51436851519E+00  0.25889989133E+01  0.25500000000E-02 0. -1.
<mgrwt>
<rscale>  0 0.25373885E+01</rscale>
<asrwt>0</asrwt>
<pdfrwt beam="1">0</pdfrwt>
<pdfrwt beam="2">0</pdfrwt>
<totfact> 0.27459500E+12</totfact>
</mgrwt>
</event>
<event>
 4    1  0.3335341E+006  0.2130174E+01  0.7546771E-02  0.2898077E+00
         22   -1    0    0    0    0  0.00000000000E+00  0.00000000000E+00  0.53092370797E+01  0.53092370797E+01  0.00000000000E+00 0. -1.
         22   -1    0    0    0    0 -0.00000000000E+00 -0.00000000000E+00 -0.67989944934E+01  0.67989944934E+01  0.00000000000E+00 0.  1.
          2    1    1    2  501    0  0.19998176678E+01 -0.73373318914E+00 -0.64057028096E+01  0.67506051644E+01  0.25500000000E-02 0.  1.
         -2    1    1    2    0  501 -0.19998176678E+01  0.73373318914E+00  0.49159453959E+01  0.53576264087E+01  0.25500000000E-02 0. -1.
<mgrwt>
<rscale>  0 0.21301741E+01</rscale>
<asrwt>0</asrwt>
<pdfrwt beam="1">0</pdfrwt>
<pdfrwt beam="2">0</pdfrwt>
<totfact> 0.36267375E+11</totfact>
</mgrwt>
</event>
<event>
 4    1  0.3335341E+006  0.2187320E+01  0.7546771E-02  0.2864809E+00
         22   -1    0    0    0    0  0.00000000000E+00  0.00000000000E+00  0.20205183342E+00  0.20205183342E+00  0.00000000000E+00 0. -1.
         22   -1    0    0    0    0 -0.00000000000E+00 -0.00000000000E+00 -0.86785433097E+02  0.86785433097E+02  0.00000000000E+00 0.  1.
          2    1    1    2  501    0  0.12471291259E+01 -0.17969504353E+01 -0.80380292869E+02  0.80410048191E+02  0.25500000000E-02 0.  1.
         -2    1    1    2    0  501 -0.12471291259E+01  0.17969504353E+01 -0.62030883949E+01  0.65774367394E+01  0.25500000000E-02 0. -1.
<mgrwt>
<rscale>  0 0.21873199E+01</rscale>
<asrwt>0</asrwt>
<pdfrwt beam="1">0</pdfrwt>
<pdfrwt beam="2">0</pdfrwt>
<totfact> 0.60465479E+11</totfact>
</mgrwt>
</event>
<event>
 4    1  0.3335341E+006  0.2813274E+01  0.7546771E-02  0.2584697E+00
         22   -1    0    0    0    0  0.00000000000E+00  0.00000000000E+00  0.69774407490E+00  0.69774407490E+00  0.00000000000E+00 0. -1.
         22   -1    0    0    0    0 -0.00000000000E+00 -0.00000000000E+00 -0.13283817639E+02  0.13283817639E+02  0.00000000000E+00 0.  1.
          2    1    1    2  501    0  0.13147323587E+01 -0.24871639641E+01 -0.89651595376E+01  0.93962012429E+01  0.25500000000E-02 0.  1.
         -2    1    1    2    0  501 -0.13147323587E+01  0.24871639641E+01 -0.36209140265E+01  0.45853604710E+01  0.25500000000E-02 0. -1.
<mgrwt>
<rscale>  0 0.28132743E+01</rscale>
<asrwt>0</asrwt>
<pdfrwt beam="1">0</pdfrwt>
<pdfrwt beam="2">0</pdfrwt>
<totfact> 0.16917207E+12</totfact>
</mgrwt>
</event>
<event>
 4    1  0.3335341E+006  0.2257962E+01  0.7546771E-02  0.2825919E+00
         22   -1    0    0    0    0  0.00000000000E+00  0.00000000000E+00  0.22461940751E+01  0.22461940751E+01  0.00000000000E+00 0.  1.
         22   -1    0    0    0    0 -0.00000000000E+00 -0.00000000000E+00 -0.35058663210E+01  0.35058663210E+01  0.00000000000E+00 0. -1.
          2    1    1    2  501    0  0.16243701875E+01 -0.15683770176E+01 -0.23375621737E+01  0.32500135991E+01  0.25500000000E-02 0. -1.
         -2    1    1    2    0  501 -0.16243701875E+01  0.15683770176E+01  0.10778899279E+01  0.25020467971E+01  0.25500000000E-02 0.  1.
<mgrwt>
<rscale>  0 0.22579618E+01</rscale>
<asrwt>0</asrwt>
<pdfrwt beam="1">0</pdfrwt>
<pdfrwt beam="2">0</pdfrwt>
<totfact> 0.21777208E+12</totfact>
</mgrwt>
</event>
<event>
 4    1  0.3335341E+006  0.2315343E+01  0.7546771E-02  0.2795997E+00
         22   -1    0    0    0    0  0.00000000000E+00  0.00000000000E+00  0.11835978788E+02  0.11835978788E+02  0.00000000000E+00 0. -1.
         22   -1    0    0    0    0 -0.00000000000E+00 -0.00000000000E+00 -0.37381056227E+01  0.37381056227E+01  0.00000000000E+00 0.  1.
          2    1    1    2  501    0  0.20465124705E+01  0.10828629319E+01 -0.32511223086E+01  0.39913165985E+01  0.25500000000E-02 0.  1.
         -2    1    1    2    0  501 -0.20465124705E+01 -0.10828629319E+01  0.11348995474E+02  0.11582767812E+02  0.25500000000E-02 0. -1.
<mgrwt>
<rscale>  0 0.23153427E+01</rscale>
<asrwt>0</asrwt>
<pdfrwt beam="1">0</pdfrwt>
<pdfrwt beam="2">0</pdfrwt>
<totfact> 0.28114206E+11</totfact>
</mgrwt>
</event>
<event>
 4    1  0.3335341E+006  0.2781175E+01  0.7546771E-02  0.2596207E+00
         22   -1    0    0    0    0  0.00000000000E+00  0.00000000000E+00  0.52614795189E+01  0.52614795189E+01  0.00000000000E+00 0. -1.
         22   -1    0    0    0    0 -0.00000000000E+00 -0.00000000000E+00 -0.46585898240E+01  0.46585898240E+01  0.00000000000E+00 0.  1.
          2    1    1    2  501    0 -0.23166550043E+01  0.15388420618E+01 -0.38020093943E+01  0.47106482821E+01  0.25500000000E-02 0.  1.
         -2    1    1    2    0  501  0.23166550043E+01 -0.15388420618E+01  0.44048990893E+01  0.52094210609E+01  0.25500000000E-02 0. -1.
<mgrwt>
<rscale>  0 0.27811745E+01</rscale>
<asrwt>0</asrwt>
<pdfrwt beam="1">0</pdfrwt>
<pdfrwt beam="2">0</pdfrwt>
<totfact> 0.57450124E+11</totfact>
</mgrwt>
</event>
<event>
 4    1  0.3335341E+006  0.2158540E+01  0.7546771E-02  0.2881352E+00
         22   -1    0    0    0    0  0.00000000000E+00  0.00000000000E+00  0.34782628188E+02  0.34782628188E+02  0.00000000000E+00 0.  1.
         22   -1    0    0    0    0 -0.00000000000E+00 -0.00000000000E+00 -0.14203207649E+00  0.14203207649E+00  0.00000000000E+00 0. -1.
          2    1    1    2  501    0  0.21515928954E+01  0.17301711380E+00  0.13155954563E+02  0.13331857856E+02  0.25500000000E-02 0. -1.
         -2    1    1    2    0  501 -0.21515928954E+01 -0.17301711380E+00  0.21484641549E+02  0.21592802409E+02  0.25500000000E-02 0.  1.
<mgrwt>
<rscale>  0 0.21585396E+01</rscale>
<asrwt>0</asrwt>
<pdfrwt beam="1">0</pdfrwt>
<pdfrwt beam="2">0</pdfrwt>
<totfact> 0.30234839E+12</totfact>
</mgrwt>
</event>
<event>
 4    1  0.3335341E+006  0.2624036E+01  0.7546771E-02  0.2656250E+00
         22   -1    0    0    0    0  0.00000000000E+00  0.00000000000E+00  0.32840618600E+01  0.32840618600E+01  0.00000000000E+00 0. -1.
         22   -1    0    0    0    0 -0.00000000000E+00 -0.00000000000E+00 -0.23232885242E+01  0.23232885242E+01  0.00000000000E+00 0.  1.
          2    1    1    2  501    0  0.42776951426E+00 -0.25889327997E+01 -0.39526605913E+00  0.26536393046E+01  0.25500000000E-02 0.  1.
         -2    1    1    2    0  501 -0.42776951426E+00  0.25889327997E+01  0.13560393949E+01  0.29537110797E+01  0.25500000000E-02 0. -1.
<mgrwt>
<rscale>  0 0.26240363E+01</rscale>
<asrwt>0</asrwt>
<pdfrwt beam="1">0</pdfrwt>
<pdfrwt beam="2">0</pdfrwt>
<totfact> 0.22608102E+12</totfact>
</mgrwt>
</event>
<event>
 4    1  0.3335341E+006  0.2038179E+01  0.7546771E-02  0.2955421E+00
         22   -1    0    0    0    0  0.00000000000E+00  0.00000000000E+00  0.49189057685E+00  0.49189057685E+00  0.00000000000E+00 0. -1.
         22   -1    0    0    0    0 -0.00000000000E+00 -0.00000000000E+00 -0.87797347069E+01  0.87797347069E+01  0.00000000000E+00 0.  1.
          2    1    1    2  501    0  0.19982734629E+01  0.40133711030E+00 -0.50486664639E+01  0.54445576382E+01  0.25500000000E-02 0.  1.
         -2    1    1    2    0  501 -0.19982734629E+01 -0.40133711030E+00 -0.32391776662E+01  0.38270676456E+01  0.25500000000E-02 0. -1.
<mgrwt>
<rscale>  0 0.20381793E+01</rscale>
<asrwt>0</asrwt>
<pdfrwt beam="1">0</pdfrwt>
<pdfrwt beam="2">0</pdfrwt>
<totfact> 0.41549844E+12</totfact>
</mgrwt>
</event>
<event>
 4    1  0.3335341E+006  0.2167435E+01  0.7546771E-02  0.2876194E+00
         22   -1    0    0    0    0  0.00000000000E+00  0.00000000000E+00  0.26935498900E+00  0.26935498900E+00  0.00000000000E+00 0.  1.
         22   -1    0    0    0    0 -0.00000000000E+00 -0.00000000000E+00 -0.20826221013E+02  0.20826221013E+02  0.00000000000E+00 0. -1.
          2    1    1    2  501    0 -0.20115526779E+01  0.80710711819E+00 -0.14531096801E+02  0.14691853077E+02  0.25500000000E-02 0. -1.
         -2    1    1    2    0  501  0.20115526779E+01 -0.80710711819E+00 -0.60257692228E+01  0.64037229254E+01  0.25500000000E-02 0.  1.
<mgrwt>
<rscale>  0 0.21674346E+01</rscale>
<asrwt>0</asrwt>
<pdfrwt beam="1">0</pdfrwt>
<pdfrwt beam="2">0</pdfrwt>
<totfact> 0.28361337E+12</totfact>
</mgrwt>
</event>
<event>
 4    1  0.3335341E+006  0.2764008E+01  0.7546771E-02  0.2602463E+00
         22   -1    0    0    0    0  0.00000000000E+00  0.00000000000E+00  0.64109916197E+00  0.64109916197E+00  0.00000000000E+00 0. -1.
         22   -1    0    0    0    0 -0.00000000000E+00 -0.00000000000E+00 -0.17144442857E+02  0.17144442857E+02  0.00000000000E+00 0.  1.
          2    1    1    2  501    0 -0.57738609048E+00 -0.27030281118E+01 -0.13162281285E+02  0.13449363955E+02  0.25500000000E-02 0.  1.
         -2    1    1    2    0  501  0.57738609048E+00  0.27030281118E+01 -0.33410624100E+01  0.43361780637E+01  0.25500000000E-02 0. -1.
<mgrwt>
<rscale>  0 0.27640084E+01</rscale>
<asrwt>0</asrwt>
<pdfrwt beam="1">0</pdfrwt>
<pdfrwt beam="2">0</pdfrwt>
<totfact> 0.13603220E+12</totfact>
</mgrwt>
</event>
<event>
 4    1  0.3335341E+006  0.2284114E+01  0.7546771E-02  0.2812105E+00
         22   -1    0    0    0    0  0.00000000000E+00  0.00000000000E+00  0.54010346527E+01  0.54010346527E+01  0.00000000000E+00 0. -1.
         22   -1    0    0    0    0 -0.00000000000E+00 -0.00000000000E+00 -0.11805422751E+01  0.11805422751E+01  0.00000000000E+00 0.  1.
          2    1    1    2  501    0 -0.22716143915E+01 -0.23861478251E+00  0.70724638321E+00  0.23911028642E+01  0.25500000000E-02 0.  1.
         -2    1    1    2    0  501  0.22716143915E+01  0.23861478251E+00  0.35132459943E+01  0.41904740636E+01  0.25500000000E-02 0. -1.
<mgrwt>
<rscale>  0 0.22841137E+01</rscale>
<asrwt>0</asrwt>
<pdfrwt beam="1">0</pdfrwt>
<pdfrwt beam="2">0</pdfrwt>
<totfact> 0.27456209E+12</totfact>
</mgrwt>
</event>
<event>
 4    1  0.3335341E+006  0.3085759E+01  0.7546771E-02  0.2495755E+00
         22   -1    0    0    0    0  0.00000000000E+00  0.00000000000E+00  0.11736022796E+02  0.11736022796E+02  0.00000000000E+00 0.  1.
         22   -1    0    0    0    0 -0.00000000000E+00 -0.00000000000E+00 -0.84525502470E+00  0.84525502470E+00  0.00000000000E+00 0. -1.
          2    1    1    2  501    0 -0.19451274512E+01 -0.23954920467E+01  0.41853147523E+01  0.51998816358E+01  0.25500000000E-02 0.  1.
         -2    1    1    2    0  501  0.19451274512E+01  0.23954920467E+01  0.67054530192E+01  0.73813961852E+01  0.25500000000E-02 0. -1.
<mgrwt>
<rscale>  0 0.30857591E+01</rscale>
<asrwt>0</asrwt>
<pdfrwt beam="1">0</pdfrwt>
<pdfrwt beam="2">0</pdfrwt>
<totfact> 0.15825194E+12</totfact>
</mgrwt>
</event>
<event>
 4    1  0.3335341E+006  0.2268387E+01  0.7546771E-02  0.2820376E+00
         22   -1    0    0    0    0  0.00000000000E+00  0.00000000000E+00  0.47547158286E+02  0.47547158286E+02  0.00000000000E+00 0. -1.
         22   -1    0    0    0    0 -0.00000000000E+00 -0.00000000000E+00 -0.11901869160E+00  0.11901869160E+00  0.00000000000E+00 0.  1.
          2    1    1    2  501    0 -0.22664520356E+01 -0.93641736344E-01  0.30892790271E+02  0.30975959563E+02  0.25500000000E-02 0. -1.
         -2    1    1    2    0  501  0.22664520356E+01  0.93641736344E-01  0.16535349323E+02  0.16690217415E+02  0.25500000000E-02 0.  1.
<mgrwt>
<rscale>  0 0.22683871E+01</rscale>
<asrwt>0</asrwt>
<pdfrwt beam="1">0</pdfrwt>
<pdfrwt beam="2">0</pdfrwt>
<totfact> 0.24508452E+12</totfact>
</mgrwt>
</event>
<event>
 4    1  0.3335341E+006  0.2907403E+01  0.7546771E-02  0.2552277E+00
         22   -1    0    0    0    0  0.00000000000E+00  0.00000000000E+00  0.63897792024E+01  0.63897792024E+01  0.00000000000E+00 0. -1.
         22   -1    0    0    0    0 -0.00000000000E+00 -0.00000000000E+00 -0.14409978547E+01  0.14409978547E+01  0.00000000000E+00 0.  1.
          2    1    1    2  501    0  0.23720248078E+01 -0.16812147147E+01  0.13534620608E+01  0.32070002585E+01  0.25500000000E-02 0. -1.
         -2    1    1    2    0  501 -0.23720248078E+01  0.16812147147E+01  0.35953192869E+01  0.46237767986E+01  0.25500000000E-02 0.  1.
<mgrwt>
<rscale>  0 0.29074028E+01</rscale>
<asrwt>0</asrwt>
<pdfrwt beam="1">0</pdfrwt>
<pdfrwt beam="2">0</pdfrwt>
<totfact> 0.17883367E+12</totfact>
</mgrwt>
</event>
<event>
 4    1  0.3335341E+006  0.2665995E+01  0.7546771E-02  0.2639583E+00
         22   -1    0    0    0    0  0.00000000000E+00  0.00000000000E+00  0.19365182939E+02  0.19365182939E+02  0.00000000000E+00 0. -1.
         22   -1    0    0    0    0 -0.00000000000E+00 -0.00000000000E+00 -0.42249127106E+00  0.42249127106E+00  0.00000000000E+00 0.  1.
          2    1    1    2  501    0  0.36687335318E+00 -0.26406296252E+01  0.13056155508E+02  0.13325566555E+02  0.25500000000E-02 0. -1.
         -2    1    1    2    0  501 -0.36687335318E+00  0.26406296252E+01  0.58865361606E+01  0.64621076551E+01  0.25500000000E-02 0.  1.
<mgrwt>
<rscale>  0 0.26659946E+01</rscale>
<asrwt>0</asrwt>
<pdfrwt beam="1">0</pdfrwt>
<pdfrwt beam="2">0</pdfrwt>
<totfact> 0.18733154E+12</totfact>
</mgrwt>
</event>
<event>
 4    1  0.3335341E+006  0.2951603E+01  0.7546771E-02  0.2537698E+00
         22   -1    0    0    0    0  0.00000000000E+00  0.00000000000E+00  0.12535285689E+01  0.12535285689E+01  0.00000000000E+00 0. -1.
         22   -1    0    0    0    0 -0.00000000000E+00 -0.00000000000E+00 -0.90579753365E+01  0.90579753365E+01  0.00000000000E+00 0.  1.
          2    1    1    2  501    0  0.29475019779E+01  0.15552544488E+00 -0.63894435003E+01  0.70382491303E+01  0.25500000000E-02 0.  1.
         -2    1    1    2    0  501 -0.29475019779E+01 -0.15552544488E+00 -0.14150032673E+01  0.32732547751E+01  0.25500000000E-02 0. -1.
<mgrwt>
<rscale>  0 0.29516034E+01</rscale>
<asrwt>0</asrwt>
<pdfrwt beam="1">0</pdfrwt>
<pdfrwt beam="2">0</pdfrwt>
<totfact> 0.13809332E+12</totfact>
</mgrwt>
</event>
<event>
 4    1  0.3335341E+006  0.4241771E+01  0.7546771E-02  0.2233331E+00
         22   -1    0    0    0    0  0.00000000000E+00  0.00000000000E+00  0.12674189760E+01  0.12674189760E+01  0.00000000000E+00 0. -1.
         22   -1    0    0    0    0 -0.00000000000E+00 -0.00000000000E+00 -0.14319339364E+02  0.14319339364E+02  0.00000000000E+00 0.  1.
          2    1    1    2  501    0 -0.22904026238E+01 -0.35702484864E+01 -0.72484557611E+01  0.83983769775E+01  0.25500000000E-02 0.  1.
         -2    1    1    2    0  501  0.22904026238E+01  0.35702484864E+01 -0.58034646272E+01  0.71883813627E+01  0.25500000000E-02 0. -1.
<mgrwt>
<rscale>  0 0.42417714E+01</rscale>
<asrwt>0</asrwt>
<pdfrwt beam="1">0</pdfrwt>
<pdfrwt beam="2">0</pdfrwt>
<totfact> 0.78096763E+11</totfact>
</mgrwt>
</event>
<event>
 4    1  0.3335341E+006  0.2890555E+01  0.7546771E-02  0.2557939E+00
         22   -1    0    0    0    0  0.00000000000E+00  0.00000000000E+00  0.45296599974E+00  0.45296599974E+00  0.00000000000E+00 0.  1.
         22   -1    0    0    0    0 -0.00000000000E+00 -0.00000000000E+00 -0.20694047754E+02  0.20694047754E+02  0.00000000000E+00 0. -1.
          2    1    1    2  501    0  0.10589300761E+01 -0.26896036605E+01 -0.13605688514E+02  0.13909351789E+02  0.25500000000E-02 0.  1.
         -2    1    1    2    0  501 -0.10589300761E+01  0.26896036605E+01 -0.66353932409E+01  0.72376619650E+01  0.25500000000E-02 0. -1.
<mgrwt>
<rscale>  0 0.28905548E+01</rscale>
<asrwt>0</asrwt>
<pdfrwt beam="1">0</pdfrwt>
<pdfrwt beam="2">0</pdfrwt>
<totfact> 0.15943343E+12</totfact>
</mgrwt>
</event>
<event>
 4    1  0.3335341E+006  0.2481373E+01  0.7546771E-02  0.2716799E+00
         22   -1    0    0    0    0  0.00000000000E+00  0.00000000000E+00  0.29323834373E+00  0.29323834373E+00  0.00000000000E+00 0.  1.
         22   -1    0    0    0    0 -0.00000000000E+00 -0.00000000000E+00 -0.26455978953E+02  0.26455978953E+02  0.00000000000E+00 0. -1.
          2    1    1    2  501    0 -0.23764953428E+01 -0.71377607764E+00 -0.19156604416E+02  0.19316643229E+02  0.25500000000E-02 0. -1.
         -2    1    1    2    0  501  0.23764953428E+01  0.71377607764E+00 -0.70061361936E+01  0.74325740675E+01  0.25500000000E-02 0.  1.
<mgrwt>
<rscale>  0 0.24813732E+01</rscale>
<asrwt>0</asrwt>
<pdfrwt beam="1">0</pdfrwt>
<pdfrwt beam="2">0</pdfrwt>
<totfact> 0.19088539E+12</totfact>
</mgrwt>
</event>
<event>
 4    1  0.3335341E+006  0.2780846E+01  0.7546771E-02  0.2596326E+00
         22   -1    0    0    0    0  0.00000000000E+00  0.00000000000E+00  0.19972646536E+01  0.19972646536E+01  0.00000000000E+00 0.  1.
         22   -1    0    0    0    0 -0.00000000000E+00 -0.00000000000E+00 -0.49168589220E+01  0.49168589220E+01  0.00000000000E+00 0. -1.
          2    1    1    2  501    0  0.22385857059E+01 -0.16497977153E+01 -0.30535599951E+01  0.41300524949E+01  0.25500000000E-02 0. -1.
         -2    1    1    2    0  501 -0.22385857059E+01  0.16497977153E+01  0.13396572668E+00  0.27840710807E+01  0.25500000000E-02 0.  1.
<mgrwt>
<rscale>  0 0.27808461E+01</rscale>
<asrwt>0</asrwt>
<pdfrwt beam="1">0</pdfrwt>
<pdfrwt beam="2">0</pdfrwt>
<totfact> 0.16753414E+12</totfact>
</mgrwt>
</event>
<event>
 4    1  0.3335341E+006  0.3227067E+01  0.7546771E-02  0.2454955E+00
         22   -1    0    0    0    0  0.00000000000E+00  0.00000000000E+00  0.20365056583E+00  0.20365056583E+00  0.00000000000E+00 0.  1.
         22   -1    0    0    0    0 -0.00000000000E+00 -0.00000000000E+00 -0.54421362155E+02  0.54421362155E+02  0.00000000000E+00 0. -1.
          2    1    1    2  501    0 -0.29272747057E+01  0.13583143138E+01 -0.33819133840E+02  0.33972750480E+02  0.25500000000E-02 0.  1.
         -2    1    1    2    0  501  0.29272747057E+01 -0.13583143138E+01 -0.20398577749E+02  0.20652262241E+02  0.25500000000E-02 0. -1.
<mgrwt>
<rscale>  0 0.32270670E+01</rscale>
<asrwt>0</asrwt>
<pdfrwt beam="1">0</pdfrwt>
<pdfrwt beam="2">0</pdfrwt>
<totfact> 0.11282749E+12</totfact>
</mgrwt>
</event>
<event>
 4    1  0.3335341E+006  0.2509227E+01  0.7546771E-02  0.2704476E+00
         22   -1    0    0    0    0  0.00000000000E+00  0.00000000000E+00  0.11851157431E+02  0.11851157431E+02  0.00000000000E+00 0.  1.
         22   -1    0    0    0    0 -0.00000000000E+00 -0.00000000000E+00 -0.10682974324E+01  0.10682974324E+01  0.00000000000E+00 0. -1.
          2    1    1    2  501    0 -0.52770544096E+00  0.24531081704E+01  0.81144067207E+00  0.26371680255E+01  0.25500000000E-02 0. -1.
         -2    1    1    2    0  501  0.52770544096E+00 -0.24531081704E+01  0.99714193265E+01  0.10282286838E+02  0.25500000000E-02 0.  1.
<mgrwt>
<rscale>  0 0.25092268E+01</rscale>
<asrwt>0</asrwt>
<pdfrwt beam="1">0</pdfrwt>
<pdfrwt beam="2">0</pdfrwt>
<totfact> 0.11971077E+12</totfact>
</mgrwt>
</event>
<event>
 4    1  0.3335341E+006  0.2325292E+01  0.7546771E-02  0.2790952E+00
         22   -1    0    0    0    0  0.00000000000E+00  0.00000000000E+00  0.30561691078E+01  0.30561691078E+01  0.00000000000E+00 0.  1.
         22   -1    0    0    0    0 -0.00000000000E+00 -0.00000000000E+00 -0.43852208877E+01  0.43852208877E+01  0.00000000000E+00 0. -1.
          2    1    1    2  501    0 -0.16541649005E+01  0.16342321921E+01 -0.35382740509E+01  0.42339539602E+01  0.25500000000E-02 0. -1.
         -2    1    1    2    0  501  0.16541649005E+01 -0.16342321921E+01  0.22092222709E+01  0.32074360353E+01  0.25500000000E-02 0.  1.
<mgrwt>
<rscale>  0 0.23252920E+01</rscale>
<asrwt>0</asrwt>
<pdfrwt beam="1">0</pdfrwt>
<pdfrwt beam="2">0</pdfrwt>
<totfact> 0.11694005E+12</totfact>
</mgrwt>
</event>
<event>
 4    1  0.3335341E+006  0.2201675E+01  0.7546771E-02  0.2856713E+00
         22   -1    0    0    0    0  0.00000000000E+00  0.00000000000E+00  0.30300885757E+01  0.30300885757E+01  0.00000000000E+00 0. -1.
         22   -1    0    0    0    0 -0.00000000000E+00 -0.00000000000E+00 -0.29578058927E+01  0.29578058927E+01  0.00000000000E+00 0.  1.
          2    1    1    2  501    0 -0.98945306404E+00  0.19668120401E+01 -0.19925627048E+01  0.29694577960E+01  0.25500000000E-02 0.  1.
         -2    1    1    2    0  501  0.98945306404E+00 -0.19668120401E+01  0.20648453879E+01  0.30184366724E+01  0.25500000000E-02 0. -1.
<mgrwt>
<rscale>  0 0.22016752E+01</rscale>
<asrwt>0</asrwt>
<pdfrwt beam="1">0</pdfrwt>
<pdfrwt beam="2">0</pdfrwt>
<totfact> 0.18750554E+12</totfact>
</mgrwt>
</event>
<event>
 4    1  0.3335341E+006  0.2517918E+01  0.7546771E-02  0.2700683E+00
         22   -1    0    0    0    0  0.00000000000E+00  0.00000000000E+00  0.35372399394E+02  0.35372399394E+02  0.00000000000E+00 0. -1.
         22   -1    0    0    0    0 -0.00000000000E+00 -0.00000000000E+00 -0.32078580734E+00  0.32078580734E+00  0.00000000000E+00 0.  1.
          2    1    1    2  501    0  0.14412180294E+01 -0.20646541274E+01  0.56706721779E+01  0.62045495828E+01  0.25500000000E-02 0.  1.
         -2    1    1    2    0  501 -0.14412180294E+01  0.20646541274E+01  0.29380941409E+02  0.29488635618E+02  0.25500000000E-02 0. -1.
<mgrwt>
<rscale>  0 0.25179183E+01</rscale>
<asrwt>0</asrwt>
<pdfrwt beam="1">0</pdfrwt>
<pdfrwt beam="2">0</pdfrwt>
<totfact> 0.11914636E+12</totfact>
</mgrwt>
</event>
<event>
 4    1  0.3335341E+006  0.2436487E+01  0.7546771E-02  0.2737211E+00
         22   -1    0    0    0    0  0.00000000000E+00  0.00000000000E+00  0.17046568926E+01  0.17046568926E+01  0.00000000000E+00 0. -1.
         22   -1    0    0    0    0 -0.00000000000E+00 -0.00000000000E+00 -0.52906001808E+01  0.52906001808E+01  0.00000000000E+00 0.  1.
          2    1    1    2  501    0  0.67192783475E+00 -0.23420025536E+01 -0.38376844968E+01  0.45457993549E+01  0.25500000000E-02 0.  1.
         -2    1    1    2    0  501 -0.67192783475E+00  0.23420025536E+01  0.25174120865E+00  0.24494577185E+01  0.25500000000E-02 0. -1.
<mgrwt>
<rscale>  0 0.24364871E+01</rscale>
<asrwt>0</asrwt>
<pdfrwt beam="1">0</pdfrwt>
<pdfrwt beam="2">0</pdfrwt>
<totfact> 0.18445785E+12</totfact>
</mgrwt>
</event>
<event>
 4    1  0.3335341E+006  0.3479169E+01  0.7546771E-02  0.2389485E+00
         22   -1    0    0    0    0  0.00000000000E+00  0.00000000000E+00  0.36314281127E+02  0.36314281127E+02  0.00000000000E+00 0.  1.
         22   -1    0    0    0    0 -0.00000000000E+00 -0.00000000000E+00 -0.59155015082E+00  0.59155015082E+00  0.00000000000E+00 0. -1.
          2    1    1    2  501    0 -0.33731988993E+01 -0.85213866947E+00  0.56696511205E+01  0.66520343848E+01  0.25500000000E-02 0. -1.
         -2    1    1    2    0  501  0.33731988993E+01  0.85213866947E+00  0.30053079856E+02  0.30253796893E+02  0.25500000000E-02 0.  1.
<mgrwt>
<rscale>  0 0.34791691E+01</rscale>
<asrwt>0</asrwt>
<pdfrwt beam="1">0</pdfrwt>
<pdfrwt beam="2">0</pdfrwt>
<totfact> 0.57789351E+11</totfact>
</mgrwt>
</event>
<event>
 4    1  0.3335341E+006  0.4276243E+01  0.7546771E-02  0.2227408E+00
         22   -1    0    0    0    0  0.00000000000E+00  0.00000000000E+00  0.15486247861E+01  0.15486247861E+01  0.00000000000E+00 0. -1.
         22   -1    0    0    0    0 -0.00000000000E+00 -0.00000000000E+00 -0.16923133728E+02  0.16923133728E+02  0.00000000000E+00 0.  1.
          2    1    1    2  501    0 -0.42400352798E+01  0.55529499174E+00 -0.12764915415E+02  0.13462144100E+02  0.25500000000E-02 0.  1.
         -2    1    1    2    0  501  0.42400352798E+01 -0.55529499174E+00 -0.26095935262E+01  0.50096144139E+01  0.25500000000E-02 0. -1.
<mgrwt>
<rscale>  0 0.42762435E+01</rscale>
<asrwt>0</asrwt>
<pdfrwt beam="1">0</pdfrwt>
<pdfrwt beam="2">0</pdfrwt>
<totfact> 0.50488744E+11</totfact>
</mgrwt>
</event>
<event>
 4    1  0.3335341E+006  0.2251229E+01  0.7546771E-02  0.2829524E+00
         22   -1    0    0    0    0  0.00000000000E+00  0.00000000000E+00  0.12017215993E+02  0.12017215993E+02  0.00000000000E+00 0. -1.
         22   -1    0    0    0    0 -0.00000000000E+00 -0.00000000000E+00 -0.10430743079E+01  0.10430743079E+01  0.00000000000E+00 0.  1.
          2    1    1    2  501    0  0.22486067547E+01  0.10860494367E+00  0.44706565152E+00  0.22951909660E+01  0.25500000000E-02 0.  1.
         -2    1    1    2    0  501 -0.22486067547E+01 -0.10860494367E+00  0.10527076033E+02  0.10765099334E+02  0.25500000000E-02 0. -1.
<mgrwt>
<rscale>  0 0.22512294E+01</rscale>
<asrwt>0</asrwt>
<pdfrwt beam="1">0</pdfrwt>
<pdfrwt beam="2">0</pdfrwt>
<totfact> 0.12095214E+12</totfact>
</mgrwt>
</event>
<event>
 4    1  0.3335341E+006  0.2172861E+01  0.7546771E-02  0.2873067E+00
         22   -1    0    0    0    0  0.00000000000E+00  0.00000000000E+00  0.27568922111E+02  0.27568922111E+02  0.00000000000E+00 0. -1.
         22   -1    0    0    0    0 -0.00000000000E+00 -0.00000000000E+00 -0.34575929305E+00  0.34575929305E+00  0.00000000000E+00 0.  1.
          2    1    1    2  501    0 -0.17735160062E+01 -0.12553727341E+01  0.36959965822E+01  0.42873904609E+01  0.25500000000E-02 0.  1.
         -2    1    1    2    0  501  0.17735160062E+01  0.12553727341E+01  0.23527166236E+02  0.23627290943E+02  0.25500000000E-02 0. -1.
<mgrwt>
<rscale>  0 0.21728613E+01</rscale>
<asrwt>0</asrwt>
<pdfrwt beam="1">0</pdfrwt>
<pdfrwt beam="2">0</pdfrwt>
<totfact> 0.15058787E+12</totfact>
</mgrwt>
</event>
<event>
 4    1  0.3335341E+006  0.3283965E+01  0.7546771E-02  0.2439407E+00
         22   -1    0    0    0    0  0.00000000000E+00  0.00000000000E+00  0.44769892139E+00  0.44769892139E+00  0.00000000000E+00 0. -1.
         22   -1    0    0    0    0 -0.00000000000E+00 -0.00000000000E+00 -0.34270598590E+02  0.34270598590E+02  0.00000000000E+00 0.  1.
          2    1    1    2  501    0  0.42770905749E+00 -0.32559923975E+01 -0.26373487606E+02  0.26577157044E+02  0.25500000000E-02 0.  1.
         -2    1    1    2    0  501 -0.42770905749E+00  0.32559923975E+01 -0.74494120631E+01  0.81411404679E+01  0.25500000000E-02 0. -1.
<mgrwt>
<rscale>  0 0.32839653E+01</rscale>
<asrwt>0</asrwt>
<pdfrwt beam="1">0</pdfrwt>
<pdfrwt beam="2">0</pdfrwt>
<totfact> 0.85296309E+11</totfact>
</mgrwt>
</event>
<event>
 4    1  0.3335341E+006  0.2487268E+01  0.7546771E-02  0.2714170E+00
         22   -1    0    0    0    0  0.00000000000E+00  0.00000000000E+00  0.12312454909E+02  0.12312454909E+02  0.00000000000E+00 0. -1.
         22   -1    0    0    0    0 -0.00000000000E+00 -0.00000000000E+00 -0.51196337896E+00  0.51196337896E+00  0.00000000000E+00 0.  1.
          2    1    1    2  501    0 -0.14299719917E+01 -0.20351108668E+01  0.50265661128E+01  0.56082857921E+01  0.25500000000E-02 0. -1.
         -2    1    1    2    0  501  0.14299719917E+01  0.20351108668E+01  0.67739254174E+01  0.72161324960E+01  0.25500000000E-02 0.  1.
<mgrwt>
<rscale>  0 0.24872681E+01</rscale>
<asrwt>0</asrwt>
<pdfrwt beam="1">0</pdfrwt>
<pdfrwt beam="2">0</pdfrwt>
<totfact> 0.26356156E+12</totfact>
</mgrwt>
</event>
<event>
 4    1  0.3335341E+006  0.2071076E+01  0.7546771E-02  0.2934346E+00
         22   -1    0    0    0    0  0.00000000000E+00  0.00000000000E+00  0.21173394190E+02  0.21173394190E+02  0.00000000000E+00 0.  1.
         22   -1    0    0    0    0 -0.00000000000E+00 -0.00000000000E+00 -0.20258877909E+00  0.20258877909E+00  0.00000000000E+00 0. -1.
          2    1    1    2  501    0  0.20592736280E+01  0.22077763968E+00  0.10425457510E+02  0.10629182538E+02  0.25500000000E-02 0. -1.
         -2    1    1    2    0  501 -0.20592736280E+01 -0.22077763968E+00  0.10545347901E+02  0.10746800431E+02  0.25500000000E-02 0.  1.
<mgrwt>
<rscale>  0 0.20710763E+01</rscale>
<asrwt>0</asrwt>
<pdfrwt beam="1">0</pdfrwt>
<pdfrwt beam="2">0</pdfrwt>
<totfact> 0.38195086E+12</totfact>
</mgrwt>
</event>
<event>
 4    1  0.3335341E+006  0.4022836E+01  0.7546771E-02  0.2272950E+00
         22   -1    0    0    0    0  0.00000000000E+00  0.00000000000E+00  0.27255393076E+02  0.27255393076E+02  0.00000000000E+00 0.  1.
         22   -1    0    0    0    0 -0.00000000000E+00 -0.00000000000E+00 -0.10747462205E+01  0.10747462205E+01  0.00000000000E+00 0. -1.
          2    1    1    2  501    0 -0.27793347221E+01 -0.29083509812E+01  0.36141888546E+01  0.54079177607E+01  0.25500000000E-02 0. -1.
         -2    1    1    2    0  501  0.27793347221E+01  0.29083509812E+01  0.22566458000E+02  0.22922221535E+02  0.25500000000E-02 0.  1.
<mgrwt>
<rscale>  0 0.40228365E+01</rscale>
<asrwt>0</asrwt>
<pdfrwt beam="1">0</pdfrwt>
<pdfrwt beam="2">0</pdfrwt>
<totfact> 0.42280546E+11</totfact>
</mgrwt>
</event>
<event>
 4    1  0.3335341E+006  0.2244202E+01  0.7546771E-02  0.2833311E+00
         22   -1    0    0    0    0  0.00000000000E+00  0.00000000000E+00  0.69541844450E+01  0.69541844450E+01  0.00000000000E+00 0. -1.
         22   -1    0    0    0    0 -0.00000000000E+00 -0.00000000000E+00 -0.73560211563E+00  0.73560211563E+00  0.00000000000E+00 0.  1.
          2    1    1    2  501    0  0.19397796878E+01 -0.11285782878E+01  0.26312653665E+01  0.34583230215E+01  0.25500000000E-02 0.  1.
         -2    1    1    2    0  501 -0.19397796878E+01  0.11285782878E+01  0.35873169628E+01  0.42314635391E+01  0.25500000000E-02 0. -1.
<mgrwt>
<rscale>  0 0.22442016E+01</rscale>
<asrwt>0</asrwt>
<pdfrwt beam="1">0</pdfrwt>
<pdfrwt beam="2">0</pdfrwt>
<totfact> 0.34850154E+12</totfact>
</mgrwt>
</event>
<event>
 4    1  0.3335341E+006  0.2606790E+01  0.7546771E-02  0.2663243E+00
         22   -1    0    0    0    0  0.00000000000E+00  0.00000000000E+00  0.21945726955E+01  0.21945726955E+01  0.00000000000E+00 0. -1.
         22   -1    0    0    0    0 -0.00000000000E+00 -0.00000000000E+00 -0.44630747588E+01  0.44630747588E+01  0.00000000000E+00 0.  1.
          2    1    1    2  501    0 -0.96334861315E+00  0.24222529995E+01 -0.29762966672E+01  0.39564755146E+01  0.25500000000E-02 0.  1.
         -2    1    1    2    0  501  0.96334861315E+00 -0.24222529995E+01  0.70779460383E+00  0.27011719397E+01  0.25500000000E-02 0. -1.
<mgrwt>
<rscale>  0 0.26067905E+01</rscale>
<asrwt>0</asrwt>
<pdfrwt beam="1">0</pdfrwt>
<pdfrwt beam="2">0</pdfrwt>
<totfact> 0.16842113E+12</totfact>
</mgrwt>
</event>
<event>
 4    1  0.3335341E+006  0.2380917E+01  0.7546771E-02  0.2763477E+00
         22   -1    0    0    0    0  0.00000000000E+00  0.00000000000E+00  0.20141820117E+02  0.20141820117E+02  0.00000000000E+00 0. -1.
         22   -1    0    0    0    0 -0.00000000000E+00 -0.00000000000E+00 -0.29157972280E+00  0.29157972280E+00  0.00000000000E+00 0.  1.
          2    1    1    2  501    0  0.23509214818E+01  0.37673246202E+00  0.80201423674E+01  0.83660892451E+01  0.25500000000E-02 0. -1.
         -2    1    1    2    0  501 -0.23509214818E+01 -0.37673246202E+00  0.11830098027E+02  0.12067310594E+02  0.25500000000E-02 0.  1.
<mgrwt>
<rscale>  0 0.23809170E+01</rscale>
<asrwt>0</asrwt>
<pdfrwt beam="1">0</pdfrwt>
<pdfrwt beam="2">0</pdfrwt>
<totfact> 0.27057517E+12</totfact>
</mgrwt>
</event>
<event>
 4    1  0.3335341E+006  0.2171734E+01  0.7546771E-02  0.2873715E+00
         22   -1    0    0    0    0  0.00000000000E+00  0.00000000000E+00  0.52637355124E+00  0.52637355124E+00  0.00000000000E+00 0. -1.
         22   -1    0    0    0    0 -0.00000000000E+00 -0.00000000000E+00 -0.10034551570E+02  0.10034551570E+02  0.00000000000E+00 0.  1.
          2    1    1    2  501    0 -0.13725170169E+01 -0.16830386113E+01 -0.64818751976E+01  0.68360174450E+01  0.25500000000E-02 0.  1.
         -2    1    1    2    0  501  0.13725170169E+01  0.16830386113E+01 -0.30263028214E+01  0.37249076765E+01  0.25500000000E-02 0. -1.
<mgrwt>
<rscale>  0 0.21717340E+01</rscale>
<asrwt>0</asrwt>
<pdfrwt beam="1">0</pdfrwt>
<pdfrwt beam="2">0</pdfrwt>
<totfact> 0.32753407E+12</totfact>
</mgrwt>
</event>
<event>
 4    1  0.3335341E+006  0.2714440E+01  0.7546771E-02  0.2620929E+00
         22   -1    0    0    0    0  0.00000000000E+00  0.00000000000E+00  0.91872526064E+01  0.91872526064E+01  0.00000000000E+00 0. -1.
         22   -1    0    0    0    0 -0.00000000000E+00 -0.00000000000E+00 -0.18275537258E+01  0.18275537258E+01  0.00000000000E+00 0.  1.
          2    1    1    2  501    0 -0.26988885152E+01 -0.29013654201E+00 -0.44578562343E+00  0.27508016568E+01  0.25500000000E-02 0.  1.
         -2    1    1    2    0  501  0.26988885152E+01  0.29013654201E+00  0.78054845040E+01  0.82640046754E+01  0.25500000000E-02 0. -1.
<mgrwt>
<rscale>  0 0.27144401E+01</rscale>
<asrwt>0</asrwt>
<pdfrwt beam="1">0</pdfrwt>
<pdfrwt beam="2">0</pdfrwt>
<totfact> 0.87963427E+11</totfact>
</mgrwt>
</event>
<event>
 4    1  0.3335341E+006  0.4964419E+01  0.7546771E-02  0.2127275E+00
         22   -1    0    0    0    0  0.00000000000E+00  0.00000000000E+00  0.85137118901E+00  0.85137118901E+00  0.00000000000E+00 0.  1.
         22   -1    0    0    0    0 -0.00000000000E+00 -0.00000000000E+00 -0.51484293601E+02  0.51484293601E+02  0.00000000000E+00 0. -1.
          2    1    1    2  501    0 -0.32250627829E+01 -0.37741778411E+01 -0.42629450094E+02  0.42917542686E+02  0.25500000000E-02 0. -1.
         -2    1    1    2    0  501  0.32250627829E+01  0.37741778411E+01 -0.80034723176E+01  0.94181221043E+01  0.25500000000E-02 0.  1.
<mgrwt>
<rscale>  0 0.49644189E+01</rscale>
<asrwt>0</asrwt>
<pdfrwt beam="1">0</pdfrwt>
<pdfrwt beam="2">0</pdfrwt>
<totfact> 0.24235755E+11</totfact>
</mgrwt>
</event>
<event>
 4    1  0.3335341E+006  0.2628562E+01  0.7546771E-02  0.2654428E+00
         22   -1    0    0    0    0  0.00000000000E+00  0.00000000000E+00  0.66025487802E+01  0.66025487802E+01  0.00000000000E+00 0.  1.
         22   -1    0    0    0    0 -0.00000000000E+00 -0.00000000000E+00 -0.29609646482E+01  0.29609646482E+01  0.00000000000E+00 0. -1.
          2    1    1    2  501    0  0.26283097036E+01  0.36353469391E-01 -0.20242265424E+01  0.33176547545E+01  0.25500000000E-02 0. -1.
         -2    1    1    2    0  501 -0.26283097036E+01 -0.36353469391E-01  0.56658106744E+01  0.62458586738E+01  0.25500000000E-02 0.  1.
<mgrwt>
<rscale>  0 0.26285623E+01</rscale>
<asrwt>0</asrwt>
<pdfrwt beam="1">0</pdfrwt>
<pdfrwt beam="2">0</pdfrwt>
<totfact> 0.74670234E+11</totfact>
</mgrwt>
</event>
<event>
 4    1  0.3335341E+006  0.2879346E+01  0.7546771E-02  0.2561739E+00
         22   -1    0    0    0    0  0.00000000000E+00  0.00000000000E+00  0.13087168867E+01  0.13087168867E+01  0.00000000000E+00 0. -1.
         22   -1    0    0    0    0 -0.00000000000E+00 -0.00000000000E+00 -0.87335207233E+01  0.87335207233E+01  0.00000000000E+00 0.  1.
          2    1    1    2  501    0  0.26277888980E+01 -0.11770107816E+01 -0.63437815802E+01  0.69666491308E+01  0.25500000000E-02 0.  1.
         -2    1    1    2    0  501 -0.26277888980E+01  0.11770107816E+01 -0.10810222564E+01  0.30755884792E+01  0.25500000000E-02 0. -1.
<mgrwt>
<rscale>  0 0.28793463E+01</rscale>
<asrwt>0</asrwt>
<pdfrwt beam="1">0</pdfrwt>
<pdfrwt beam="2">0</pdfrwt>
<totfact> 0.13734398E+12</totfact>
</mgrwt>
</event>
<event>
 4    1  0.3335341E+006  0.3424563E+01  0.7546771E-02  0.2402947E+00
         22   -1    0    0    0    0  0.00000000000E+00  0.00000000000E+00  0.10714870370E+01  0.10714870370E+01  0.00000000000E+00 0. -1.
         22   -1    0    0    0    0 -0.00000000000E+00 -0.00000000000E+00 -0.11025623196E+02  0.11025623196E+02  0.00000000000E+00 0.  1.
          2    1    1    2  501    0  0.55769408621E+00  0.33788462542E+01 -0.44604582265E+01  0.56234614603E+01  0.25500000000E-02 0.  1.
         -2    1    1    2    0  501 -0.55769408621E+00 -0.33788462542E+01 -0.54936779326E+01  0.64736487728E+01  0.25500000000E-02 0. -1.
<mgrwt>
<rscale>  0 0.34245629E+01</rscale>
<asrwt>0</asrwt>
<pdfrwt beam="1">0</pdfrwt>
<pdfrwt beam="2">0</pdfrwt>
<totfact> 0.13026489E+12</totfact>
</mgrwt>
</event>
<event>
 4    1  0.3335341E+006  0.2043809E+01  0.7546771E-02  0.2951768E+00
         22   -1    0    0    0    0  0.00000000000E+00  0.00000000000E+00  0.35875004334E+00  0.35875004334E+00  0.00000000000E+00 0.  1.
         22   -1    0    0    0    0 -0.00000000000E+00 -0.00000000000E+00 -0.15922123744E+02  0.15922123744E+02  0.00000000000E+00 0. -1.
          2    1    1    2  501    0 -0.62584520665E+00 -0.19456272328E+01 -0.35618808530E+01  0.41065982595E+01  0.25500000000E-02 0.  1.
         -2    1    1    2    0  501  0.62584520665E+00  0.19456272328E+01 -0.12001492847E+02  0.12174275528E+02  0.25500000000E-02 0. -1.
<mgrwt>
<rscale>  0 0.20438087E+01</rscale>
<asrwt>0</asrwt>
<pdfrwt beam="1">0</pdfrwt>
<pdfrwt beam="2">0</pdfrwt>
<totfact> 0.28698284E+12</totfact>
</mgrwt>
</event>
<event>
 4    1  0.3335341E+006  0.3109576E+01  0.7546771E-02  0.2488648E+00
         22   -1    0    0    0    0  0.00000000000E+00  0.00000000000E+00  0.11589580585E+02  0.11589580585E+02  0.00000000000E+00 0. -1.
         22   -1    0    0    0    0 -0.00000000000E+00 -0.00000000000E+00 -0.92076545508E+00  0.92076545508E+00  0.00000000000E+00 0.  1.
          2    1    1    2  501    0  0.20417900410E+01  0.23453249193E+01  0.72509857574E+01  0.78896296811E+01  0.25500000000E-02 0. -1.
         -2    1    1    2    0  501 -0.20417900410E+01 -0.23453249193E+01  0.34178293728E+01  0.46207163593E+01  0.25500000000E-02 0.  1.
<mgrwt>
<rscale>  0 0.31095759E+01</rscale>
<asrwt>0</asrwt>
<pdfrwt beam="1">0</pdfrwt>
<pdfrwt beam="2">0</pdfrwt>
<totfact> 0.14576277E+12</totfact>
</mgrwt>
</event>
<event>
 4    1  0.3335341E+006  0.2142913E+01  0.7546771E-02  0.2890513E+00
         22   -1    0    0    0    0  0.00000000000E+00  0.00000000000E+00  0.18107319713E+01  0.18107319713E+01  0.00000000000E+00 0.  1.
         22   -1    0    0    0    0 -0.00000000000E+00 -0.00000000000E+00 -0.29710428694E+01  0.29710428694E+01  0.00000000000E+00 0. -1.
          2    1    1    2  501    0  0.11431158648E+01 -0.18125551416E+01 -0.14950142863E+01  0.26128804490E+01  0.25500000000E-02 0. -1.
         -2    1    1    2    0  501 -0.11431158648E+01  0.18125551416E+01  0.33470338821E+00  0.21688943917E+01  0.25500000000E-02 0.  1.
<mgrwt>
<rscale>  0 0.21429131E+01</rscale>
<asrwt>0</asrwt>
<pdfrwt beam="1">0</pdfrwt>
<pdfrwt beam="2">0</pdfrwt>
<totfact> 0.33921223E+12</totfact>
</mgrwt>
</event>
<event>
 4    1  0.3335341E+006  0.2215505E+01  0.7546771E-02  0.2849008E+00
         22   -1    0    0    0    0  0.00000000000E+00  0.00000000000E+00  0.11104825351E+01  0.11104825351E+01  0.00000000000E+00 0. -1.
         22   -1    0    0    0    0 -0.00000000000E+00 -0.00000000000E+00 -0.12840364677E+02  0.12840364677E+02  0.00000000000E+00 0.  1.
          2    1    1    2  501    0  0.14163192822E+01 -0.17036706310E+01 -0.11513587537E+02  0.11724809525E+02  0.25500000000E-02 0.  1.
         -2    1    1    2    0  501 -0.14163192822E+01  0.17036706310E+01 -0.21629460570E+00  0.22260376877E+01  0.25500000000E-02 0. -1.
<mgrwt>
<rscale>  0 0.22155046E+01</rscale>
<asrwt>0</asrwt>
<pdfrwt beam="1">0</pdfrwt>
<pdfrwt beam="2">0</pdfrwt>
<totfact> 0.10384357E+12</totfact>
</mgrwt>
</event>
<event>
 4    1  0.3335341E+006  0.3108556E+01  0.7546771E-02  0.2488950E+00
         22   -1    0    0    0    0  0.00000000000E+00  0.00000000000E+00  0.11595466722E+02  0.11595466722E+02  0.00000000000E+00 0.  1.
         22   -1    0    0    0    0 -0.00000000000E+00 -0.00000000000E+00 -0.89623616610E+00  0.89623616610E+00  0.00000000000E+00 0. -1.
          2    1    1    2  501    0 -0.24404024196E+01 -0.19254991906E+01  0.36951889548E+01  0.48288237716E+01  0.25500000000E-02 0. -1.
         -2    1    1    2    0  501  0.24404024196E+01  0.19254991906E+01  0.70040416012E+01  0.76628791167E+01  0.25500000000E-02 0.  1.
<mgrwt>
<rscale>  0 0.31085555E+01</rscale>
<asrwt>0</asrwt>
<pdfrwt beam="1">0</pdfrwt>
<pdfrwt beam="2">0</pdfrwt>
<totfact> 0.15022663E+12</totfact>
</mgrwt>
</event>
<event>
 4    1  0.3335341E+006  0.2592561E+01  0.7546771E-02  0.2669078E+00
         22   -1    0    0    0    0  0.00000000000E+00  0.00000000000E+00  0.12458712390E+02  0.12458712390E+02  0.00000000000E+00 0.  1.
         22   -1    0    0    0    0 -0.00000000000E+00 -0.00000000000E+00 -0.23849359701E+01  0.23849359701E+01  0.00000000000E+00 0. -1.
          2    1    1    2  501    0  0.12798530199E+01 -0.22546265980E+01 -0.14917525597E+01  0.29911029823E+01  0.25500000000E-02 0. -1.
         -2    1    1    2    0  501 -0.12798530199E+01  0.22546265980E+01  0.11565528979E+02  0.11852545377E+02  0.25500000000E-02 0.  1.
<mgrwt>
<rscale>  0 0.25925608E+01</rscale>
<asrwt>0</asrwt>
<pdfrwt beam="1">0</pdfrwt>
<pdfrwt beam="2">0</pdfrwt>
<totfact> 0.44644088E+11</totfact>
</mgrwt>
</event>
<event>
 4    1  0.3335341E+006  0.2095859E+01  0.7546771E-02  0.2918895E+00
         22   -1    0    0    0    0  0.00000000000E+00  0.00000000000E+00  0.46785079214E+01  0.46785079214E+01  0.00000000000E+00 0. -1.
         22   -1    0    0    0    0 -0.00000000000E+00 -0.00000000000E+00 -0.95909059424E+00  0.95909059424E+00  0.00000000000E+00 0.  1.
          2    1    1    2  501    0 -0.80017353770E+00  0.19370958759E+01  0.22687523608E+01  0.30886666864E+01  0.25500000000E-02 0. -1.
         -2    1    1    2    0  501  0.80017353770E+00 -0.19370958759E+01  0.14506649664E+01  0.25489318292E+01  0.25500000000E-02 0.  1.
<mgrwt>
<rscale>  0 0.20958589E+01</rscale>
<asrwt>0</asrwt>
<pdfrwt beam="1">0</pdfrwt>
<pdfrwt beam="2">0</pdfrwt>
<totfact> 0.41269216E+12</totfact>
</mgrwt>
</event>
<event>
 4    1  0.3335341E+006  0.2953632E+01  0.7546771E-02  0.2537039E+00
         22   -1    0    0    0    0  0.00000000000E+00  0.00000000000E+00  0.17619746357E+02  0.17619746357E+02  0.00000000000E+00 0. -1.
         22   -1    0    0    0    0 -0.00000000000E+00 -0.00000000000E+00 -0.12063054072E+01  0.12063054072E+01  0.00000000000E+00 0.  1.
          2    1    1    2  501    0 -0.19595596931E+00 -0.29471234822E+01  0.97917036775E+00  0.31117063925E+01  0.25500000000E-02 0.  1.
         -2    1    1    2    0  501  0.19595596931E+00  0.29471234822E+01  0.15434270582E+02  0.15714345372E+02  0.25500000000E-02 0. -1.
<mgrwt>
<rscale>  0 0.29536320E+01</rscale>
<asrwt>0</asrwt>
<pdfrwt beam="1">0</pdfrwt>
<pdfrwt beam="2">0</pdfrwt>
<totfact> 0.63988587E+11</totfact>
</mgrwt>
</event>
<event>
 4    1  0.3335341E+006  0.4764720E+01  0.7546771E-02  0.2152181E+00
         22   -1    0    0    0    0  0.00000000000E+00  0.00000000000E+00  0.16809755063E+01  0.16809755063E+01  0.00000000000E+00 0. -1.
         22   -1    0    0    0    0 -0.00000000000E+00 -0.00000000000E+00 -0.14167669777E+02  0.14167669777E+02  0.00000000000E+00 0.  1.
          2    1    1    2  501    0 -0.33494904651E+01  0.33887256489E+01 -0.79563983959E+01  0.92739867283E+01  0.25500000000E-02 0.  1.
         -2    1    1    2    0  501  0.33494904651E+01 -0.33887256489E+01 -0.45302958747E+01  0.65746585549E+01  0.25500000000E-02 0. -1.
<mgrwt>
<rscale>  0 0.47647198E+01</rscale>
<asrwt>0</asrwt>
<pdfrwt beam="1">0</pdfrwt>
<pdfrwt beam="2">0</pdfrwt>
<totfact> 0.57183431E+11</totfact>
</mgrwt>
</event>
<event>
 4    1  0.3335341E+006  0.2341118E+01  0.7546771E-02  0.2783010E+00
         22   -1    0    0    0    0  0.00000000000E+00  0.00000000000E+00  0.50009797110E+02  0.50009797110E+02  0.00000000000E+00 0. -1.
         22   -1    0    0    0    0 -0.00000000000E+00 -0.00000000000E+00 -0.25610755487E+00  0.25610755487E+00  0.00000000000E+00 0.  1.
          2    1    1    2  501    0  0.55200195529E+00 -0.22751088743E+01  0.58673989313E+01  0.63172148349E+01  0.25500000000E-02 0.  1.
         -2    1    1    2    0  501 -0.55200195529E+00  0.22751088743E+01  0.43886290623E+02  0.43948689830E+02  0.25500000000E-02 0. -1.
<mgrwt>
<rscale>  0 0.23411179E+01</rscale>
<asrwt>0</asrwt>
<pdfrwt beam="1">0</pdfrwt>
<pdfrwt beam="2">0</pdfrwt>
<totfact> 0.97669009E+11</totfact>
</mgrwt>
</event>
<event>
 4    1  0.3335341E+006  0.3041405E+01  0.7546771E-02  0.2509256E+00
         22   -1    0    0    0    0  0.00000000000E+00  0.00000000000E+00  0.53962712416E+01  0.53962712416E+01  0.00000000000E+00 0.  1.
         22   -1    0    0    0    0 -0.00000000000E+00 -0.00000000000E+00 -0.17145916288E+01  0.17145916288E+01  0.00000000000E+00 0. -1.
          2    1    1    2  501    0 -0.30129549347E+01 -0.41501802821E+00  0.17853021061E+01  0.35266765538E+01  0.25500000000E-02 0.  1.
         -2    1    1    2    0  501  0.30129549347E+01  0.41501802821E+00  0.18963775066E+01  0.35841863167E+01  0.25500000000E-02 0. -1.
<mgrwt>
<rscale>  0 0.30414049E+01</rscale>
<asrwt>0</asrwt>
<pdfrwt beam="1">0</pdfrwt>
<pdfrwt beam="2">0</pdfrwt>
<totfact> 0.17898175E+12</totfact>
</mgrwt>
</event>
<event>
 4    1  0.3335341E+006  0.2209334E+01  0.7546771E-02  0.2852435E+00
         22   -1    0    0    0    0  0.00000000000E+00  0.00000000000E+00  0.17367868769E+02  0.17367868769E+02  0.00000000000E+00 0. -1.
         22   -1    0    0    0    0 -0.00000000000E+00 -0.00000000000E+00 -0.35854056035E+00  0.35854056035E+00  0.00000000000E+00 0.  1.
          2    1    1    2  501    0 -0.35344659271E+00 -0.21808768358E+01  0.43840712457E+01  0.49093009133E+01  0.25500000000E-02 0.  1.
         -2    1    1    2    0  501  0.35344659271E+00  0.21808768358E+01  0.12625256963E+02  0.12817108417E+02  0.25500000000E-02 0. -1.
<mgrwt>
<rscale>  0 0.22093336E+01</rscale>
<asrwt>0</asrwt>
<pdfrwt beam="1">0</pdfrwt>
<pdfrwt beam="2">0</pdfrwt>
<totfact> 0.25792823E+12</totfact>
</mgrwt>
</event>
<event>
 4    1  0.3335341E+006  0.2699960E+01  0.7546771E-02  0.2626440E+00
         22   -1    0    0    0    0  0.00000000000E+00  0.00000000000E+00  0.76303157335E+00  0.76303157335E+00  0.00000000000E+00 0.  1.
         22   -1    0    0    0    0 -0.00000000000E+00 -0.00000000000E+00 -0.17527123732E+02  0.17527123732E+02  0.00000000000E+00 0. -1.
          2    1    1    2  501    0 -0.19392379174E+01 -0.18785993080E+01 -0.14550184444E+02  0.14798569286E+02  0.25500000000E-02 0. -1.
         -2    1    1    2    0  501  0.19392379174E+01  0.18785993080E+01 -0.22139077155E+01  0.34915860201E+01  0.25500000000E-02 0.  1.
<mgrwt>
<rscale>  0 0.26999603E+01</rscale>
<asrwt>0</asrwt>
<pdfrwt beam="1">0</pdfrwt>
<pdfrwt beam="2">0</pdfrwt>
<totfact> 0.10862563E+12</totfact>
</mgrwt>
</event>
<event>
 4    1  0.3335341E+006  0.2428023E+01  0.7546771E-02  0.2741139E+00
         22   -1    0    0    0    0  0.00000000000E+00  0.00000000000E+00  0.13147453284E+01  0.13147453284E+01  0.00000000000E+00 0.  1.
         22   -1    0    0    0    0 -0.00000000000E+00 -0.00000000000E+00 -0.87652476054E+01  0.87652476054E+01  0.00000000000E+00 0. -1.
          2    1    1    2  501    0  0.15540618230E+00  0.24230428354E+01 -0.72476151243E+01  0.76435083016E+01  0.25500000000E-02 0. -1.
         -2    1    1    2    0  501 -0.15540618230E+00 -0.24230428354E+01 -0.20288715264E+00  0.24364846321E+01  0.25500000000E-02 0.  1.
<mgrwt>
<rscale>  0 0.24280227E+01</rscale>
<asrwt>0</asrwt>
<pdfrwt beam="1">0</pdfrwt>
<pdfrwt beam="2">0</pdfrwt>
<totfact> 0.13602228E+12</totfact>
</mgrwt>
</event>
<event>
 4    1  0.3335341E+006  0.2427054E+01  0.7546771E-02  0.2741590E+00
         22   -1    0    0    0    0  0.00000000000E+00  0.00000000000E+00  0.17368241331E+00  0.17368241331E+00  0.00000000000E+00 0.  1.
         22   -1    0    0    0    0 -0.00000000000E+00 -0.00000000000E+00 -0.34329636621E+02  0.34329636621E+02  0.00000000000E+00 0. -1.
          2    1    1    2  501    0 -0.11766719681E+01  0.21227403438E+01 -0.15184001031E+02  0.15376751195E+02  0.25500000000E-02 0.  1.
         -2    1    1    2    0  501  0.11766719681E+01 -0.21227403438E+01 -0.18971953176E+02  0.19126567839E+02  0.25500000000E-02 0. -1.
<mgrwt>
<rscale>  0 0.24270538E+01</rscale>
<asrwt>0</asrwt>
<pdfrwt beam="1">0</pdfrwt>
<pdfrwt beam="2">0</pdfrwt>
<totfact> 0.24584151E+12</totfact>
</mgrwt>
</event>
<event>
 4    1  0.3335341E+006  0.3551873E+01  0.7546771E-02  0.2372123E+00
         22   -1    0    0    0    0  0.00000000000E+00  0.00000000000E+00  0.33885359565E+01  0.33885359565E+01  0.00000000000E+00 0. -1.
         22   -1    0    0    0    0 -0.00000000000E+00 -0.00000000000E+00 -0.13365443446E+02  0.13365443446E+02  0.00000000000E+00 0.  1.
          2    1    1    2  501    0  0.60577932604E+00 -0.34998321473E+01 -0.12103667952E+02  0.12614062710E+02  0.25500000000E-02 0.  1.
         -2    1    1    2    0  501 -0.60577932604E+00  0.34998321473E+01  0.21267604628E+01  0.41399166924E+01  0.25500000000E-02 0. -1.
<mgrwt>
<rscale>  0 0.35518728E+01</rscale>
<asrwt>0</asrwt>
<pdfrwt beam="1">0</pdfrwt>
<pdfrwt beam="2">0</pdfrwt>
<totfact> 0.27195451E+11</totfact>
</mgrwt>
</event>
<event>
 4    1  0.3335341E+006  0.2451493E+01  0.7546771E-02  0.2730309E+00
         22   -1    0    0    0    0  0.00000000000E+00  0.00000000000E+00  0.20415716962E+00  0.20415716962E+00  0.00000000000E+00 0. -1.
         22   -1    0    0    0    0 -0.00000000000E+00 -0.00000000000E+00 -0.29792050723E+02  0.29792050723E+02  0.00000000000E+00 0.  1.
          2    1    1    2  501    0  0.22336534072E+01  0.10102504224E+01 -0.16430746087E+02  0.16612622820E+02  0.25500000000E-02 0.  1.
         -2    1    1    2    0  501 -0.22336534072E+01 -0.10102504224E+01 -0.13157147466E+02  0.13383585073E+02  0.25500000000E-02 0. -1.
<mgrwt>
<rscale>  0 0.24514934E+01</rscale>
<asrwt>0</asrwt>
<pdfrwt beam="1">0</pdfrwt>
<pdfrwt beam="2">0</pdfrwt>
<totfact> 0.24612589E+12</totfact>
</mgrwt>
</event>
<event>
 4    1  0.3335341E+006  0.2015648E+01  0.7546771E-02  0.2970243E+00
         22   -1    0    0    0    0  0.00000000000E+00  0.00000000000E+00  0.17763249472E+01  0.17763249472E+01  0.00000000000E+00 0.  1.
         22   -1    0    0    0    0 -0.00000000000E+00 -0.00000000000E+00 -0.25335646480E+01  0.25335646480E+01  0.00000000000E+00 0. -1.
          2    1    1    2  501    0 -0.19759406796E+01 -0.39810556797E+00 -0.10505847656E+01  0.22730078013E+01  0.25500000000E-02 0.  1.
         -2    1    1    2    0  501  0.19759406796E+01  0.39810556797E+00  0.29334506483E+00  0.20368817939E+01  0.25500000000E-02 0. -1.
<mgrwt>
<rscale>  0 0.20156478E+01</rscale>
<asrwt>0</asrwt>
<pdfrwt beam="1">0</pdfrwt>
<pdfrwt beam="2">0</pdfrwt>
<totfact> 0.41755858E+12</totfact>
</mgrwt>
</event>
<event>
 4    1  0.3335341E+006  0.2046661E+01  0.7546771E-02  0.2949924E+00
         22   -1    0    0    0    0  0.00000000000E+00  0.00000000000E+00  0.14679080581E+01  0.14679080581E+01  0.00000000000E+00 0.  1.
         22   -1    0    0    0    0 -0.00000000000E+00 -0.00000000000E+00 -0.29795614904E+01  0.29795614904E+01  0.00000000000E+00 0. -1.
          2    1    1    2  501    0 -0.66272459471E+00 -0.19363915454E+01 -0.29860641745E+00  0.20683298578E+01  0.25500000000E-02 0.  1.
         -2    1    1    2    0  501  0.66272459471E+00  0.19363915454E+01 -0.12130470148E+01  0.23791396908E+01  0.25500000000E-02 0. -1.
<mgrwt>
<rscale>  0 0.20466613E+01</rscale>
<asrwt>0</asrwt>
<pdfrwt beam="1">0</pdfrwt>
<pdfrwt beam="2">0</pdfrwt>
<totfact> 0.43059569E+12</totfact>
</mgrwt>
</event>
<event>
 4    1  0.3335341E+006  0.2006240E+01  0.7546771E-02  0.2976528E+00
         22   -1    0    0    0    0  0.00000000000E+00  0.00000000000E+00  0.24516013084E+01  0.24516013084E+01  0.00000000000E+00 0.  1.
         22   -1    0    0    0    0 -0.00000000000E+00 -0.00000000000E+00 -0.18860525623E+01  0.18860525623E+01  0.00000000000E+00 0. -1.
          2    1    1    2  501    0 -0.18922780382E+01 -0.66654083549E+00  0.10632906248E+01  0.22705916221E+01  0.25500000000E-02 0.  1.
         -2    1    1    2    0  501  0.18922780382E+01  0.66654083549E+00 -0.49774187870E+00  0.20670622486E+01  0.25500000000E-02 0. -1.
<mgrwt>
<rscale>  0 0.20062401E+01</rscale>
<asrwt>0</asrwt>
<pdfrwt beam="1">0</pdfrwt>
<pdfrwt beam="2">0</pdfrwt>
<totfact> 0.40481236E+12</totfact>
</mgrwt>
</event>
<event>
 4    1  0.3335341E+006  0.2804196E+01  0.7546771E-02  0.2587928E+00
         22   -1    0    0    0    0  0.00000000000E+00  0.00000000000E+00  0.25137398045E+00  0.25137398045E+00  0.00000000000E+00 0. -1.
         22   -1    0    0    0    0 -0.00000000000E+00 -0.00000000000E+00 -0.31802376661E+02  0.31802376661E+02  0.00000000000E+00 0.  1.
          2    1    1    2  501    0 -0.27500236024E+01 -0.54852359422E+00 -0.17825351906E+02  0.18044574947E+02  0.25500000000E-02 0.  1.
         -2    1    1    2    0  501  0.27500236024E+01  0.54852359422E+00 -0.13725650774E+02  0.14009175694E+02  0.25500000000E-02 0. -1.
<mgrwt>
<rscale>  0 0.28041959E+01</rscale>
<asrwt>0</asrwt>
<pdfrwt beam="1">0</pdfrwt>
<pdfrwt beam="2">0</pdfrwt>
<totfact> 0.17948208E+12</totfact>
</mgrwt>
</event>
<event>
 4    1  0.3335341E+006  0.2347672E+01  0.7546771E-02  0.2779750E+00
         22   -1    0    0    0    0  0.00000000000E+00  0.00000000000E+00  0.16424593349E+01  0.16424593349E+01  0.00000000000E+00 0. -1.
         22   -1    0    0    0    0 -0.00000000000E+00 -0.00000000000E+00 -0.35177134612E+01  0.35177134612E+01  0.00000000000E+00 0.  1.
          2    1    1    2  501    0  0.25828136419E+00  0.23334202588E+01 -0.14913698262E+01  0.27813215974E+01  0.25500000000E-02 0.  1.
         -2    1    1    2    0  501 -0.25828136419E+00 -0.23334202588E+01 -0.38388430007E+00  0.23788511987E+01  0.25500000000E-02 0. -1.
<mgrwt>
<rscale>  0 0.23476724E+01</rscale>
<asrwt>0</asrwt>
<pdfrwt beam="1">0</pdfrwt>
<pdfrwt beam="2">0</pdfrwt>
<totfact> 0.31154257E+12</totfact>
</mgrwt>
</event>
<event>
 4    1  0.3335341E+006  0.2066315E+01  0.7546771E-02  0.2937356E+00
         22   -1    0    0    0    0  0.00000000000E+00  0.00000000000E+00  0.32838258908E+01  0.32838258908E+01  0.00000000000E+00 0.  1.
         22   -1    0    0    0    0 -0.00000000000E+00 -0.00000000000E+00 -0.13801666885E+01  0.13801666885E+01  0.00000000000E+00 0. -1.
          2    1    1    2  501    0 -0.65629751473E+00  0.19593176954E+01  0.15131272273E+01  0.25610960091E+01  0.25500000000E-02 0.  1.
         -2    1    1    2    0  501  0.65629751473E+00 -0.19593176954E+01  0.39053197499E+00  0.21028965703E+01  0.25500000000E-02 0. -1.
<mgrwt>
<rscale>  0 0.20663153E+01</rscale>
<asrwt>0</asrwt>
<pdfrwt beam="1">0</pdfrwt>
<pdfrwt beam="2">0</pdfrwt>
<totfact> 0.41253364E+12</totfact>
</mgrwt>
</event>
<event>
 4    1  0.3335341E+006  0.2107053E+01  0.7546771E-02  0.2912032E+00
         22   -1    0    0    0    0  0.00000000000E+00  0.00000000000E+00  0.14927600210E+01  0.14927600210E+01  0.00000000000E+00 0. -1.
         22   -1    0    0    0    0 -0.00000000000E+00 -0.00000000000E+00 -0.53472388661E+01  0.53472388661E+01  0.00000000000E+00 0.  1.
          2    1    1    2  501    0 -0.20442673981E+01 -0.51052386156E+00 -0.42055849395E+01  0.47038935994E+01  0.25500000000E-02 0.  1.
         -2    1    1    2    0  501  0.20442673981E+01  0.51052386156E+00  0.35110609439E+00  0.21361052877E+01  0.25500000000E-02 0. -1.
<mgrwt>
<rscale>  0 0.21070525E+01</rscale>
<asrwt>0</asrwt>
<pdfrwt beam="1">0</pdfrwt>
<pdfrwt beam="2">0</pdfrwt>
<totfact> 0.21222634E+12</totfact>
</mgrwt>
</event>
<event>
 4    1  0.3335341E+006  0.3043604E+01  0.7546771E-02  0.2508578E+00
         22   -1    0    0    0    0  0.00000000000E+00  0.00000000000E+00  0.10610236976E+02  0.10610236976E+02  0.00000000000E+00 0. -1.
         22   -1    0    0    0    0 -0.00000000000E+00 -0.00000000000E+00 -0.89691860924E+00  0.89691860924E+00  0.00000000000E+00 0.  1.
          2    1    1    2  501    0 -0.23215804593E+01  0.19681923747E+01  0.39185459240E+01  0.49617059278E+01  0.25500000000E-02 0.  1.
         -2    1    1    2    0  501  0.23215804593E+01 -0.19681923747E+01  0.57947724433E+01  0.65454496579E+01  0.25500000000E-02 0. -1.
<mgrwt>
<rscale>  0 0.30436037E+01</rscale>
<asrwt>0</asrwt>
<pdfrwt beam="1">0</pdfrwt>
<pdfrwt beam="2">0</pdfrwt>
<totfact> 0.16720434E+12</totfact>
</mgrwt>
</event>
<event>
 4    1  0.3335341E+006  0.2178334E+01  0.7546771E-02  0.2869929E+00
         22   -1    0    0    0    0  0.00000000000E+00  0.00000000000E+00  0.13483858983E+01  0.13483858983E+01  0.00000000000E+00 0. -1.
         22   -1    0    0    0    0 -0.00000000000E+00 -0.00000000000E+00 -0.35411785271E+01  0.35411785271E+01  0.00000000000E+00 0.  1.
          2    1    1    2  501    0 -0.79184658127E+00  0.20293130124E+01 -0.90346479356E+00  0.23582594103E+01  0.25500000000E-02 0. -1.
         -2    1    1    2    0  501  0.79184658127E+00 -0.20293130124E+01 -0.12893278352E+01  0.25313050151E+01  0.25500000000E-02 0.  1.
<mgrwt>
<rscale>  0 0.21783340E+01</rscale>
<asrwt>0</asrwt>
<pdfrwt beam="1">0</pdfrwt>
<pdfrwt beam="2">0</pdfrwt>
<totfact> 0.38787431E+12</totfact>
</mgrwt>
</event>
<event>
 4    1  0.3335341E+006  0.3228230E+01  0.7546771E-02  0.2454632E+00
         22   -1    0    0    0    0  0.00000000000E+00  0.00000000000E+00  0.68279084670E+01  0.68279084670E+01  0.00000000000E+00 0. -1.
         22   -1    0    0    0    0 -0.00000000000E+00 -0.00000000000E+00 -0.15466973499E+01  0.15466973499E+01  0.00000000000E+00 0.  1.
          2    1    1    2  501    0 -0.31148732794E+01 -0.84795418833E+00  0.21598002992E+01  0.38840965085E+01  0.25500000000E-02 0.  1.
         -2    1    1    2    0  501  0.31148732794E+01  0.84795418833E+00  0.31214108179E+01  0.44905093084E+01  0.25500000000E-02 0. -1.
<mgrwt>
<rscale>  0 0.32282299E+01</rscale>
<asrwt>0</asrwt>
<pdfrwt beam="1">0</pdfrwt>
<pdfrwt beam="2">0</pdfrwt>
<totfact> 0.15229817E+12</totfact>
</mgrwt>
</event>
<event>
 4    1  0.3335341E+006  0.2275750E+01  0.7546771E-02  0.2816490E+00
         22   -1    0    0    0    0  0.00000000000E+00  0.00000000000E+00  0.15484962692E+01  0.15484962692E+01  0.00000000000E+00 0. -1.
         22   -1    0    0    0    0 -0.00000000000E+00 -0.00000000000E+00 -0.46296413176E+01  0.46296413176E+01  0.00000000000E+00 0.  1.
          2    1    1    2  501    0  0.80465017404E+00  0.21287482627E+01 -0.31680662901E+01  0.39007283409E+01  0.25500000000E-02 0.  1.
         -2    1    1    2    0  501 -0.80465017404E+00 -0.21287482627E+01  0.86921241673E-01  0.22774092459E+01  0.25500000000E-02 0. -1.
<mgrwt>
<rscale>  0 0.22757499E+01</rscale>
<asrwt>0</asrwt>
<pdfrwt beam="1">0</pdfrwt>
<pdfrwt beam="2">0</pdfrwt>
<totfact> 0.24131243E+12</totfact>
</mgrwt>
</event>
<event>
 4    1  0.3335341E+006  0.2159130E+01  0.7546771E-02  0.2881008E+00
         22   -1    0    0    0    0  0.00000000000E+00  0.00000000000E+00  0.90406836557E+01  0.90406836557E+01  0.00000000000E+00 0.  1.
         22   -1    0    0    0    0 -0.00000000000E+00 -0.00000000000E+00 -0.88357194350E+00  0.88357194350E+00  0.00000000000E+00 0. -1.
          2    1    1    2  501    0 -0.37784260058E+00  0.21258107003E+01  0.87653682313E+00  0.23302702567E+01  0.25500000000E-02 0. -1.
         -2    1    1    2    0  501  0.37784260058E+00 -0.21258107003E+01  0.72805748891E+01  0.75939853425E+01  0.25500000000E-02 0.  1.
<mgrwt>
<rscale>  0 0.21591301E+01</rscale>
<asrwt>0</asrwt>
<pdfrwt beam="1">0</pdfrwt>
<pdfrwt beam="2">0</pdfrwt>
<totfact> 0.20642402E+12</totfact>
</mgrwt>
</event>
<event>
 4    1  0.3335341E+006  0.2136485E+01  0.7546771E-02  0.2894319E+00
         22   -1    0    0    0    0  0.00000000000E+00  0.00000000000E+00  0.13444772773E+01  0.13444772773E+01  0.00000000000E+00 0. -1.
         22   -1    0    0    0    0 -0.00000000000E+00 -0.00000000000E+00 -0.47351961819E+01  0.47351961819E+01  0.00000000000E+00 0.  1.
          2    1    1    2  501    0 -0.26722890931E+00 -0.21197052825E+01 -0.33125353965E+01  0.39417583678E+01  0.25500000000E-02 0.  1.
         -2    1    1    2    0  501  0.26722890931E+00  0.21197052825E+01 -0.78183508157E-01  0.21379150914E+01  0.25500000000E-02 0. -1.
<mgrwt>
<rscale>  0 0.21364850E+01</rscale>
<asrwt>0</asrwt>
<pdfrwt beam="1">0</pdfrwt>
<pdfrwt beam="2">0</pdfrwt>
<totfact> 0.27640290E+12</totfact>
</mgrwt>
</event>
<event>
 4    1  0.3335341E+006  0.3484997E+01  0.7546771E-02  0.2388070E+00
         22   -1    0    0    0    0  0.00000000000E+00  0.00000000000E+00  0.53686159197E+02  0.53686159197E+02  0.00000000000E+00 0. -1.
         22   -1    0    0    0    0 -0.00000000000E+00 -0.00000000000E+00 -0.22635614370E+00  0.22635614370E+00  0.00000000000E+00 0.  1.
          2    1    1    2  501    0 -0.10801393218E+01 -0.33133813929E+01  0.26083478779E+02  0.26315263041E+02  0.25500000000E-02 0. -1.
         -2    1    1    2    0  501  0.10801393218E+01  0.33133813929E+01  0.27376324274E+02  0.27597252300E+02  0.25500000000E-02 0.  1.
<mgrwt>
<rscale>  0 0.34849969E+01</rscale>
<asrwt>0</asrwt>
<pdfrwt beam="1">0</pdfrwt>
<pdfrwt beam="2">0</pdfrwt>
<totfact> 0.10209393E+12</totfact>
</mgrwt>
</event>
<event>
 4    1  0.3335341E+006  0.2033378E+01  0.7546771E-02  0.2958552E+00
         22   -1    0    0    0    0  0.00000000000E+00  0.00000000000E+00  0.33851121608E+00  0.33851121608E+00  0.00000000000E+00 0.  1.
         22   -1    0    0    0    0 -0.00000000000E+00 -0.00000000000E+00 -0.13024345161E+02  0.13024345161E+02  0.00000000000E+00 0. -1.
          2    1    1    2  501    0 -0.20319404666E+01 -0.76414989660E-01 -0.80093403649E+01  0.82634230736E+01  0.25500000000E-02 0. -1.
         -2    1    1    2    0  501  0.20319404666E+01  0.76414989660E-01 -0.46764935805E+01  0.50994333040E+01  0.25500000000E-02 0.  1.
<mgrwt>
<rscale>  0 0.20333784E+01</rscale>
<asrwt>0</asrwt>
<pdfrwt beam="1">0</pdfrwt>
<pdfrwt beam="2">0</pdfrwt>
<totfact> 0.39207512E+12</totfact>
</mgrwt>
</event>
<event>
 4    1  0.3335341E+006  0.2068713E+01  0.7546771E-02  0.2935839E+00
         22   -1    0    0    0    0  0.00000000000E+00  0.00000000000E+00  0.77690986825E+01  0.77690986825E+01  0.00000000000E+00 0. -1.
         22   -1    0    0    0    0 -0.00000000000E+00 -0.00000000000E+00 -0.96328688881E+00  0.96328688881E+00  0.00000000000E+00 0.  1.
          2    1    1    2  501    0 -0.20189330383E+01 -0.45108126263E+00  0.54593172852E+00  0.21395356677E+01  0.25500000000E-02 0.  1.
         -2    1    1    2    0  501  0.20189330383E+01  0.45108126263E+00  0.62598800652E+01  0.65928499036E+01  0.25500000000E-02 0. -1.
<mgrwt>
<rscale>  0 0.20687125E+01</rscale>
<asrwt>0</asrwt>
<pdfrwt beam="1">0</pdfrwt>
<pdfrwt beam="2">0</pdfrwt>
<totfact> 0.22448501E+12</totfact>
</mgrwt>
</event>
<event>
 4    1  0.3335341E+006  0.5289209E+01  0.7546771E-02  0.2089986E+00
         22   -1    0    0    0    0  0.00000000000E+00  0.00000000000E+00  0.22222850126E+02  0.22222850126E+02  0.00000000000E+00 0.  1.
         22   -1    0    0    0    0 -0.00000000000E+00 -0.00000000000E+00 -0.12783995468E+01  0.12783995468E+01  0.00000000000E+00 0. -1.
          2    1    1    2  501    0 -0.41597016654E+01 -0.32668963067E+01  0.90199617831E+01  0.10456359141E+02  0.25500000000E-02 0. -1.
         -2    1    1    2    0  501  0.41597016654E+01  0.32668963067E+01  0.11924488796E+02  0.13044890531E+02  0.25500000000E-02 0.  1.
<mgrwt>
<rscale>  0 0.52892094E+01</rscale>
<asrwt>0</asrwt>
<pdfrwt beam="1">0</pdfrwt>
<pdfrwt beam="2">0</pdfrwt>
<totfact> 0.44829989E+11</totfact>
</mgrwt>
</event>
<event>
 4    1  0.3335341E+006  0.4160456E+01  0.7546771E-02  0.2247633E+00
         22   -1    0    0    0    0  0.00000000000E+00  0.00000000000E+00  0.13421992338E+02  0.13421992338E+02  0.00000000000E+00 0.  1.
         22   -1    0    0    0    0 -0.00000000000E+00 -0.00000000000E+00 -0.14502519193E+01  0.14502519193E+01  0.00000000000E+00 0. -1.
          2    1    1    2  501    0  0.30076676900E+01  0.28745998023E+01  0.35111388991E+01  0.54440326807E+01  0.25500000000E-02 0. -1.
         -2    1    1    2    0  501 -0.30076676900E+01 -0.28745998023E+01  0.84606015193E+01  0.94282115763E+01  0.25500000000E-02 0.  1.
<mgrwt>
<rscale>  0 0.41604562E+01</rscale>
<asrwt>0</asrwt>
<pdfrwt beam="1">0</pdfrwt>
<pdfrwt beam="2">0</pdfrwt>
<totfact> 0.72426654E+11</totfact>
</mgrwt>
</event>
<event>
 4    1  0.3335341E+006  0.2009199E+01  0.7546771E-02  0.2974545E+00
         22   -1    0    0    0    0  0.00000000000E+00  0.00000000000E+00  0.18141349483E+00  0.18141349483E+00  0.00000000000E+00 0. -1.
         22   -1    0    0    0    0 -0.00000000000E+00 -0.00000000000E+00 -0.24460543228E+02  0.24460543228E+02  0.00000000000E+00 0.  1.
          2    1    1    2  501    0  0.10650389535E+01  0.17036920574E+01 -0.84376346067E+01  0.86735551452E+01  0.25500000000E-02 0. -1.
         -2    1    1    2    0  501 -0.10650389535E+01 -0.17036920574E+01 -0.15841495126E+02  0.15968401578E+02  0.25500000000E-02 0.  1.
<mgrwt>
<rscale>  0 0.20091991E+01</rscale>
<asrwt>0</asrwt>
<pdfrwt beam="1">0</pdfrwt>
<pdfrwt beam="2">0</pdfrwt>
<totfact> 0.36040337E+12</totfact>
</mgrwt>
</event>
<event>
 4    1  0.3335341E+006  0.2136702E+01  0.7546771E-02  0.2894190E+00
         22   -1    0    0    0    0  0.00000000000E+00  0.00000000000E+00  0.20677625774E+02  0.20677625774E+02  0.00000000000E+00 0. -1.
         22   -1    0    0    0    0 -0.00000000000E+00 -0.00000000000E+00 -0.36098059275E+00  0.36098059275E+00  0.00000000000E+00 0.  1.
          2    1    1    2  501    0 -0.26761810143E+00 -0.21198744934E+01  0.36029342106E+01  0.41888696261E+01  0.25500000000E-02 0.  1.
         -2    1    1    2    0  501  0.26761810143E+00  0.21198744934E+01  0.16713710970E+02  0.16849736740E+02  0.25500000000E-02 0. -1.
<mgrwt>
<rscale>  0 0.21367016E+01</rscale>
<asrwt>0</asrwt>
<pdfrwt beam="1">0</pdfrwt>
<pdfrwt beam="2">0</pdfrwt>
<totfact> 0.20604334E+12</totfact>
</mgrwt>
</event>
<event>
 4    1  0.3335341E+006  0.2359713E+01  0.7546771E-02  0.2773806E+00
         22   -1    0    0    0    0  0.00000000000E+00  0.00000000000E+00  0.31202758525E+01  0.31202758525E+01  0.00000000000E+00 0.  1.
         22   -1    0    0    0    0 -0.00000000000E+00 -0.00000000000E+00 -0.20281234046E+01  0.20281234046E+01  0.00000000000E+00 0. -1.
          2    1    1    2  501    0  0.17581077369E+01 -0.15739433647E+01  0.14381930915E+01  0.27634482808E+01  0.25500000000E-02 0. -1.
         -2    1    1    2    0  501 -0.17581077369E+01  0.15739433647E+01 -0.34604064357E+00  0.23849509763E+01  0.25500000000E-02 0.  1.
<mgrwt>
<rscale>  0 0.23597133E+01</rscale>
<asrwt>0</asrwt>
<pdfrwt beam="1">0</pdfrwt>
<pdfrwt beam="2">0</pdfrwt>
<totfact> 0.28097840E+12</totfact>
</mgrwt>
</event>
<event>
 4    1  0.3335341E+006  0.2705289E+01  0.7546771E-02  0.2624406E+00
         22   -1    0    0    0    0  0.00000000000E+00  0.00000000000E+00  0.83474652858E+00  0.83474652858E+00  0.00000000000E+00 0. -1.
         22   -1    0    0    0    0 -0.00000000000E+00 -0.00000000000E+00 -0.12459736353E+02  0.12459736353E+02  0.00000000000E+00 0.  1.
          2    1    1    2  501    0  0.26934823155E+01  0.25245711732E+00 -0.21939376863E+01  0.34830949821E+01  0.25500000000E-02 0. -1.
         -2    1    1    2    0  501 -0.26934823155E+01 -0.25245711732E+00 -0.94310521377E+01  0.98113878991E+01  0.25500000000E-02 0.  1.
<mgrwt>
<rscale>  0 0.27052889E+01</rscale>
<asrwt>0</asrwt>
<pdfrwt beam="1">0</pdfrwt>
<pdfrwt beam="2">0</pdfrwt>
<totfact> 0.14922194E+12</totfact>
</mgrwt>
</event>
<event>
 4    1  0.3335341E+006  0.2416180E+01  0.7546771E-02  0.2746678E+00
         22   -1    0    0    0    0  0.00000000000E+00  0.00000000000E+00  0.13836199243E+02  0.13836199243E+02  0.00000000000E+00 0. -1.
         22   -1    0    0    0    0 -0.00000000000E+00 -0.00000000000E+00 -0.59927283443E+00  0.59927283443E+00  0.00000000000E+00 0.  1.
          2    1    1    2  501    0  0.23894375150E+01 -0.35847816531E+00  0.26920680841E+01  0.36173409163E+01  0.25500000000E-02 0.  1.
         -2    1    1    2    0  501 -0.23894375150E+01  0.35847816531E+00  0.10544858325E+02  0.10818131161E+02  0.25500000000E-02 0. -1.
<mgrwt>
<rscale>  0 0.24161798E+01</rscale>
<asrwt>0</asrwt>
<pdfrwt beam="1">0</pdfrwt>
<pdfrwt beam="2">0</pdfrwt>
<totfact> 0.19122337E+12</totfact>
</mgrwt>
</event>
<event>
 4    1  0.3335341E+006  0.2187672E+01  0.7546771E-02  0.2864609E+00
         22   -1    0    0    0    0  0.00000000000E+00  0.00000000000E+00  0.30208711626E+01  0.30208711626E+01  0.00000000000E+00 0.  1.
         22   -1    0    0    0    0 -0.00000000000E+00 -0.00000000000E+00 -0.23018385885E+01  0.23018385885E+01  0.00000000000E+00 0. -1.
          2    1    1    2  501    0  0.95940821164E+00 -0.19660720040E+01 -0.11263975969E+01  0.24606261988E+01  0.25500000000E-02 0. -1.
         -2    1    1    2    0  501 -0.95940821164E+00  0.19660720040E+01  0.18454301710E+01  0.28620835523E+01  0.25500000000E-02 0.  1.
<mgrwt>
<rscale>  0 0.21876722E+01</rscale>
<asrwt>0</asrwt>
<pdfrwt beam="1">0</pdfrwt>
<pdfrwt beam="2">0</pdfrwt>
<totfact> 0.25197166E+12</totfact>
</mgrwt>
</event>
<event>
 4    1  0.3335341E+006  0.2245365E+01  0.7546771E-02  0.2832683E+00
         22   -1    0    0    0    0  0.00000000000E+00  0.00000000000E+00  0.59511806469E+00  0.59511806469E+00  0.00000000000E+00 0.  1.
         22   -1    0    0    0    0 -0.00000000000E+00 -0.00000000000E+00 -0.11752424443E+02  0.11752424443E+02  0.00000000000E+00 0. -1.
          2    1    1    2  501    0  0.18038140106E+01  0.13371291190E+01 -0.88405575699E+01  0.91212457436E+01  0.25500000000E-02 0. -1.
         -2    1    1    2    0  501 -0.18038140106E+01 -0.13371291190E+01 -0.23167488080E+01  0.32262967637E+01  0.25500000000E-02 0.  1.
<mgrwt>
<rscale>  0 0.22453654E+01</rscale>
<asrwt>0</asrwt>
<pdfrwt beam="1">0</pdfrwt>
<pdfrwt beam="2">0</pdfrwt>
<totfact> 0.23528857E+12</totfact>
</mgrwt>
</event>
<event>
 4    1  0.3335341E+006  0.2184042E+01  0.7546771E-02  0.2866672E+00
         22   -1    0    0    0    0  0.00000000000E+00  0.00000000000E+00  0.24529832954E+01  0.24529832954E+01  0.00000000000E+00 0. -1.
         22   -1    0    0    0    0 -0.00000000000E+00 -0.00000000000E+00 -0.19450204266E+01  0.19450204266E+01  0.00000000000E+00 0.  1.
          2    1    1    2  501    0  0.15372124175E+01  0.15514540430E+01  0.28682714300E+00  0.22027954913E+01  0.25500000000E-02 0. -1.
         -2    1    1    2    0  501 -0.15372124175E+01 -0.15514540430E+01  0.22113572579E+00  0.21952082306E+01  0.25500000000E-02 0.  1.
<mgrwt>
<rscale>  0 0.21840417E+01</rscale>
<asrwt>0</asrwt>
<pdfrwt beam="1">0</pdfrwt>
<pdfrwt beam="2">0</pdfrwt>
<totfact> 0.39041766E+12</totfact>
</mgrwt>
</event>
<event>
 4    1  0.3335341E+006  0.2573369E+01  0.7546771E-02  0.2677042E+00
         22   -1    0    0    0    0  0.00000000000E+00  0.00000000000E+00  0.11965606604E+02  0.11965606604E+02  0.00000000000E+00 0. -1.
         22   -1    0    0    0    0 -0.00000000000E+00 -0.00000000000E+00 -0.62113558218E+00  0.62113558218E+00  0.00000000000E+00 0.  1.
          2    1    1    2  501    0 -0.16672276486E+01 -0.19602479240E+01  0.35945713118E+01  0.44207656999E+01  0.25500000000E-02 0.  1.
         -2    1    1    2    0  501  0.16672276486E+01  0.19602479240E+01  0.77498997104E+01  0.81659764865E+01  0.25500000000E-02 0. -1.
<mgrwt>
<rscale>  0 0.25733687E+01</rscale>
<asrwt>0</asrwt>
<pdfrwt beam="1">0</pdfrwt>
<pdfrwt beam="2">0</pdfrwt>
<totfact> 0.21930807E+12</totfact>
</mgrwt>
</event>
<event>
 4    1  0.3335341E+006  0.4241610E+01  0.7546771E-02  0.2233359E+00
         22   -1    0    0    0    0  0.00000000000E+00  0.00000000000E+00  0.12649096679E+02  0.12649096679E+02  0.00000000000E+00 0.  1.
         22   -1    0    0    0    0 -0.00000000000E+00 -0.00000000000E+00 -0.14845093078E+01  0.14845093078E+01  0.00000000000E+00 0. -1.
          2    1    1    2  501    0 -0.38040674049E+01 -0.18762515952E+01  0.41360671514E+01  0.59243824027E+01  0.25500000000E-02 0. -1.
         -2    1    1    2    0  501  0.38040674049E+01  0.18762515952E+01  0.70285202195E+01  0.82092235838E+01  0.25500000000E-02 0.  1.
<mgrwt>
<rscale>  0 0.42416100E+01</rscale>
<asrwt>0</asrwt>
<pdfrwt beam="1">0</pdfrwt>
<pdfrwt beam="2">0</pdfrwt>
<totfact> 0.75813656E+11</totfact>
</mgrwt>
</event>
<event>
 4    1  0.3335341E+006  0.4100029E+01  0.7546771E-02  0.2258572E+00
         22   -1    0    0    0    0  0.00000000000E+00  0.00000000000E+00  0.75882768081E+01  0.75882768081E+01  0.00000000000E+00 0. -1.
         22   -1    0    0    0    0 -0.00000000000E+00 -0.00000000000E+00 -0.22840933933E+01  0.22840933933E+01  0.00000000000E+00 0.  1.
          2    1    1    2  501    0 -0.28332377742E+01 -0.29636119701E+01  0.35088086799E+01  0.53964782080E+01  0.25500000000E-02 0.  1.
         -2    1    1    2    0  501  0.28332377742E+01  0.29636119701E+01  0.17953747349E+01  0.44758919933E+01  0.25500000000E-02 0. -1.
<mgrwt>
<rscale>  0 0.41000291E+01</rscale>
<asrwt>0</asrwt>
<pdfrwt beam="1">0</pdfrwt>
<pdfrwt beam="2">0</pdfrwt>
<totfact> 0.85522561E+11</totfact>
</mgrwt>
</event>
<event>
 4    1  0.3335341E+006  0.3104582E+01  0.7546771E-02  0.2490130E+00
         22   -1    0    0    0    0  0.00000000000E+00  0.00000000000E+00  0.11429368708E+01  0.11429368708E+01  0.00000000000E+00 0. -1.
         22   -1    0    0    0    0 -0.00000000000E+00 -0.00000000000E+00 -0.11045629674E+02  0.11045629674E+02  0.00000000000E+00 0.  1.
          2    1    1    2  501    0  0.40235214368E+00  0.30783979209E+01 -0.79152450770E+01  0.85023251019E+01  0.25500000000E-02 0.  1.
         -2    1    1    2    0  501 -0.40235214368E+00 -0.30783979209E+01 -0.19874477258E+01  0.36862414425E+01  0.25500000000E-02 0. -1.
<mgrwt>
<rscale>  0 0.31045817E+01</rscale>
<asrwt>0</asrwt>
<pdfrwt beam="1">0</pdfrwt>
<pdfrwt beam="2">0</pdfrwt>
<totfact> 0.12072459E+12</totfact>
</mgrwt>
</event>
<event>
 4    1  0.3335341E+006  0.2072137E+01  0.7546771E-02  0.2933678E+00
         22   -1    0    0    0    0  0.00000000000E+00  0.00000000000E+00  0.65257556220E+00  0.65257556220E+00  0.00000000000E+00 0.  1.
         22   -1    0    0    0    0 -0.00000000000E+00 -0.00000000000E+00 -0.21281636083E+02  0.21281636083E+02  0.00000000000E+00 0. -1.
          2    1    1    2  501    0  0.19581962791E+01 -0.67765079749E+00 -0.19429953335E+02  0.19540133991E+02  0.25500000000E-02 0. -1.
         -2    1    1    2    0  501 -0.19581962791E+01  0.67765079749E+00 -0.11991071859E+01  0.23940776547E+01  0.25500000000E-02 0.  1.
<mgrwt>
<rscale>  0 0.20721365E+01</rscale>
<asrwt>0</asrwt>
<pdfrwt beam="1">0</pdfrwt>
<pdfrwt beam="2">0</pdfrwt>
<totfact> 0.10187074E+12</totfact>
</mgrwt>
</event>
<event>
 4    1  0.3335341E+006  0.2177000E+01  0.7546771E-02  0.2870692E+00
         22   -1    0    0    0    0  0.00000000000E+00  0.00000000000E+00  0.84967594236E+00  0.84967594236E+00  0.00000000000E+00 0. -1.
         22   -1    0    0    0    0 -0.00000000000E+00 -0.00000000000E+00 -0.66815987840E+01  0.66815987840E+01  0.00000000000E+00 0.  1.
          2    1    1    2  501    0 -0.26710732905E-01 -0.21768349053E+01 -0.13854327461E+01  0.25804561738E+01  0.25500000000E-02 0. -1.
         -2    1    1    2    0  501  0.26710732905E-01  0.21768349053E+01 -0.44464900955E+01  0.49508185526E+01  0.25500000000E-02 0.  1.
<mgrwt>
<rscale>  0 0.21770003E+01</rscale>
<asrwt>0</asrwt>
<pdfrwt beam="1">0</pdfrwt>
<pdfrwt beam="2">0</pdfrwt>
<totfact> 0.31027126E+12</totfact>
</mgrwt>
</event>
<event>
 4    1  0.3335341E+006  0.2551033E+01  0.7546771E-02  0.2686450E+00
         22   -1    0    0    0    0  0.00000000000E+00  0.00000000000E+00  0.34551601507E+01  0.34551601507E+01  0.00000000000E+00 0.  1.
         22   -1    0    0    0    0 -0.00000000000E+00 -0.00000000000E+00 -0.10656427219E+02  0.10656427219E+02  0.00000000000E+00 0. -1.
          2    1    1    2  501    0 -0.25502544027E+01 -0.62977327060E-01 -0.10002586759E+02  0.10322766685E+02  0.25500000000E-02 0. -1.
         -2    1    1    2    0  501  0.25502544027E+01  0.62977327060E-01  0.28013196911E+01  0.37888206841E+01  0.25500000000E-02 0.  1.
<mgrwt>
<rscale>  0 0.25510332E+01</rscale>
<asrwt>0</asrwt>
<pdfrwt beam="1">0</pdfrwt>
<pdfrwt beam="2">0</pdfrwt>
<totfact> 0.35034845E+11</totfact>
</mgrwt>
</event>
<event>
 4    1  0.3335341E+006  0.2363213E+01  0.7546771E-02  0.2772090E+00
         22   -1    0    0    0    0  0.00000000000E+00  0.00000000000E+00  0.13097730696E+02  0.13097730696E+02  0.00000000000E+00 0.  1.
         22   -1    0    0    0    0 -0.00000000000E+00 -0.00000000000E+00 -0.43225464969E+00  0.43225464969E+00  0.00000000000E+00 0. -1.
          2    1    1    2  501    0 -0.20755822530E+01 -0.11299228358E+01  0.55449182493E+01  0.60275112773E+01  0.25500000000E-02 0.  1.
         -2    1    1    2    0  501  0.20755822530E+01  0.11299228358E+01  0.71205577967E+01  0.75024740681E+01  0.25500000000E-02 0. -1.
<mgrwt>
<rscale>  0 0.23632126E+01</rscale>
<asrwt>0</asrwt>
<pdfrwt beam="1">0</pdfrwt>
<pdfrwt beam="2">0</pdfrwt>
<totfact> 0.29579177E+12</totfact>
</mgrwt>
</event>
<event>
 4    1  0.3335341E+006  0.2002246E+01  0.7546771E-02  0.2979214E+00
         22   -1    0    0    0    0  0.00000000000E+00  0.00000000000E+00  0.17648281881E+01  0.17648281881E+01  0.00000000000E+00 0.  1.
         22   -1    0    0    0    0 -0.00000000000E+00 -0.00000000000E+00 -0.25965195485E+01  0.25965195485E+01  0.00000000000E+00 0. -1.
          2    1    1    2  501    0  0.66627891719E+00 -0.18881349029E+01 -0.11872488224E+01  0.23277773252E+01  0.25500000000E-02 0. -1.
         -2    1    1    2    0  501 -0.66627891719E+00  0.18881349029E+01  0.35555746202E+00  0.20335704114E+01  0.25500000000E-02 0.  1.
<mgrwt>
<rscale>  0 0.20022456E+01</rscale>
<asrwt>0</asrwt>
<pdfrwt beam="1">0</pdfrwt>
<pdfrwt beam="2">0</pdfrwt>
<totfact> 0.40885039E+12</totfact>
</mgrwt>
</event>
<event>
 4    1  0.3335341E+006  0.3791494E+01  0.7546771E-02  0.2319015E+00
         22   -1    0    0    0    0  0.00000000000E+00  0.00000000000E+00  0.52687261451E+02  0.52687261451E+02  0.00000000000E+00 0.  1.
         22   -1    0    0    0    0 -0.00000000000E+00 -0.00000000000E+00 -0.27530233804E+00  0.27530233804E+00  0.00000000000E+00 0. -1.
          2    1    1    2  501    0  0.89628875457E+00 -0.36840308337E+01  0.23703784103E+02  0.24005099542E+02  0.25500000000E-02 0. -1.
         -2    1    1    2    0  501 -0.89628875457E+00  0.36840308337E+01  0.28708175009E+02  0.28957464246E+02  0.25500000000E-02 0.  1.
<mgrwt>
<rscale>  0 0.37914935E+01</rscale>
<asrwt>0</asrwt>
<pdfrwt beam="1">0</pdfrwt>
<pdfrwt beam="2">0</pdfrwt>
<totfact> 0.84083273E+11</totfact>
</mgrwt>
</event>
<event>
 4    1  0.3335341E+006  0.3337762E+01  0.7546771E-02  0.2425138E+00
         22   -1    0    0    0    0  0.00000000000E+00  0.00000000000E+00  0.11383463120E+01  0.11383463120E+01  0.00000000000E+00 0. -1.
         22   -1    0    0    0    0 -0.00000000000E+00 -0.00000000000E+00 -0.14586681341E+02  0.14586681341E+02  0.00000000000E+00 0.  1.
          2    1    1    2  501    0  0.22398879950E+01  0.24745802820E+01 -0.11234442390E+02  0.11719784474E+02  0.25500000000E-02 0.  1.
         -2    1    1    2    0  501 -0.22398879950E+01 -0.24745802820E+01 -0.22138926391E+01  0.40052431789E+01  0.25500000000E-02 0. -1.
<mgrwt>
<rscale>  0 0.33377616E+01</rscale>
<asrwt>0</asrwt>
<pdfrwt beam="1">0</pdfrwt>
<pdfrwt beam="2">0</pdfrwt>
<totfact> 0.86338744E+11</totfact>
</mgrwt>
</event>
<event>
 4    1  0.3335341E+006  0.3045681E+01  0.7546771E-02  0.2507939E+00
         22   -1    0    0    0    0  0.00000000000E+00  0.00000000000E+00  0.55180404778E+01  0.55180404778E+01  0.00000000000E+00 0. -1.
         22   -1    0    0    0    0 -0.00000000000E+00 -0.00000000000E+00 -0.23217531542E+01  0.23217531542E+01  0.00000000000E+00 0.  1.
          2    1    1    2  501    0  0.15336843529E+01  0.26313456671E+01 -0.46101876483E+00  0.30803753859E+01  0.25500000000E-02 0.  1.
         -2    1    1    2    0  501 -0.15336843529E+01 -0.26313456671E+01  0.36573060884E+01  0.47594182461E+01  0.25500000000E-02 0. -1.
<mgrwt>
<rscale>  0 0.30456812E+01</rscale>
<asrwt>0</asrwt>
<pdfrwt beam="1">0</pdfrwt>
<pdfrwt beam="2">0</pdfrwt>
<totfact> 0.12272261E+12</totfact>
</mgrwt>
</event>
<event>
 4    1  0.3335341E+006  0.2360757E+01  0.7546771E-02  0.2773294E+00
         22   -1    0    0    0    0  0.00000000000E+00  0.00000000000E+00  0.47720443476E+01  0.47720443476E+01  0.00000000000E+00 0. -1.
         22   -1    0    0    0    0 -0.00000000000E+00 -0.00000000000E+00 -0.15474321056E+01  0.15474321056E+01  0.00000000000E+00 0.  1.
          2    1    1    2  501    0 -0.18485399799E+01 -0.14683558153E+01  0.47426336080E-01  0.23612337067E+01  0.25500000000E-02 0.  1.
         -2    1    1    2    0  501  0.18485399799E+01  0.14683558153E+01  0.31771859059E+01  0.39582427466E+01  0.25500000000E-02 0. -1.
<mgrwt>
<rscale>  0 0.23607574E+01</rscale>
<asrwt>0</asrwt>
<pdfrwt beam="1">0</pdfrwt>
<pdfrwt beam="2">0</pdfrwt>
<totfact> 0.23301167E+12</totfact>
</mgrwt>
</event>
<event>
 4    1  0.3335341E+006  0.3189340E+01  0.7546771E-02  0.2465533E+00
         22   -1    0    0    0    0  0.00000000000E+00  0.00000000000E+00  0.26012223504E+01  0.26012223504E+01  0.00000000000E+00 0.  1.
         22   -1    0    0    0    0 -0.00000000000E+00 -0.00000000000E+00 -0.18882020478E+02  0.18882020478E+02  0.00000000000E+00 0. -1.
          2    1    1    2  501    0  0.27751080155E+01 -0.15718332762E+01 -0.17705281107E+02  0.17990243743E+02  0.25500000000E-02 0. -1.
         -2    1    1    2    0  501 -0.27751080155E+01  0.15718332762E+01  0.14244829799E+01  0.34929990851E+01  0.25500000000E-02 0.  1.
<mgrwt>
<rscale>  0 0.31893402E+01</rscale>
<asrwt>0</asrwt>
<pdfrwt beam="1">0</pdfrwt>
<pdfrwt beam="2">0</pdfrwt>
<totfact> 0.24180141E+11</totfact>
</mgrwt>
</event>
<event>
 4    1  0.3335341E+006  0.2065935E+01  0.7546771E-02  0.2937597E+00
         22   -1    0    0    0    0  0.00000000000E+00  0.00000000000E+00  0.14735679745E+01  0.14735679745E+01  0.00000000000E+00 0. -1.
         22   -1    0    0    0    0 -0.00000000000E+00 -0.00000000000E+00 -0.29162129323E+01  0.29162129323E+01  0.00000000000E+00 0.  1.
          2    1    1    2  501    0 -0.13182075269E+01  0.15907266760E+01 -0.54055084968E+00  0.21354821857E+01  0.25500000000E-02 0. -1.
         -2    1    1    2    0  501  0.13182075269E+01 -0.15907266760E+01 -0.90209410814E+00  0.22542987211E+01  0.25500000000E-02 0.  1.
<mgrwt>
<rscale>  0 0.20659354E+01</rscale>
<asrwt>0</asrwt>
<pdfrwt beam="1">0</pdfrwt>
<pdfrwt beam="2">0</pdfrwt>
<totfact> 0.43959049E+12</totfact>
</mgrwt>
</event>
<event>
 4    1  0.3335341E+006  0.2101973E+01  0.7546771E-02  0.2915138E+00
         22   -1    0    0    0    0  0.00000000000E+00  0.00000000000E+00  0.57219272904E+02  0.57219272904E+02  0.00000000000E+00 0.  1.
         22   -1    0    0    0    0 -0.00000000000E+00 -0.00000000000E+00 -0.11408331889E+00  0.11408331889E+00  0.00000000000E+00 0. -1.
          2    1    1    2  501    0  0.20703337868E+01 -0.36332172917E+00  0.12256552080E+02  0.12435487930E+02  0.25500000000E-02 0. -1.
         -2    1    1    2    0  501 -0.20703337868E+01  0.36332172917E+00  0.44848637505E+02  0.44897868293E+02  0.25500000000E-02 0.  1.
<mgrwt>
<rscale>  0 0.21019732E+01</rscale>
<asrwt>0</asrwt>
<pdfrwt beam="1">0</pdfrwt>
<pdfrwt beam="2">0</pdfrwt>
<totfact> 0.20103422E+12</totfact>
</mgrwt>
</event>
<event>
 4    1  0.3335341E+006  0.2313001E+01  0.7546771E-02  0.2797191E+00
         22   -1    0    0    0    0  0.00000000000E+00  0.00000000000E+00  0.99911152852E+01  0.99911152852E+01  0.00000000000E+00 0. -1.
         22   -1    0    0    0    0 -0.00000000000E+00 -0.00000000000E+00 -0.53548936038E+00  0.53548936038E+00  0.00000000000E+00 0.  1.
          2    1    1    2  501    0 -0.74316553584E-01 -0.23118052273E+01  0.46987549638E+01  0.52372006904E+01  0.25500000000E-02 0.  1.
         -2    1    1    2    0  501  0.74316553584E-01  0.23118052273E+01  0.47568709611E+01  0.52894039552E+01  0.25500000000E-02 0. -1.
<mgrwt>
<rscale>  0 0.23130008E+01</rscale>
<asrwt>0</asrwt>
<pdfrwt beam="1">0</pdfrwt>
<pdfrwt beam="2">0</pdfrwt>
<totfact> 0.32293941E+12</totfact>
</mgrwt>
</event>
<event>
 4    1  0.3335341E+006  0.2369069E+01  0.7546771E-02  0.2769228E+00
         22   -1    0    0    0    0  0.00000000000E+00  0.00000000000E+00  0.20472261104E+01  0.20472261104E+01  0.00000000000E+00 0. -1.
         22   -1    0    0    0    0 -0.00000000000E+00 -0.00000000000E+00 -0.10824021469E+02  0.10824021469E+02  0.00000000000E+00 0.  1.
          2    1    1    2  501    0  0.17629977975E+01 -0.15825038472E+01 -0.99496109736E+01  0.10227768314E+02  0.25500000000E-02 0.  1.
         -2    1    1    2    0  501 -0.17629977975E+01  0.15825038472E+01  0.11728156145E+01  0.26434792657E+01  0.25500000000E-02 0. -1.
<mgrwt>
<rscale>  0 0.23690686E+01</rscale>
<asrwt>0</asrwt>
<pdfrwt beam="1">0</pdfrwt>
<pdfrwt beam="2">0</pdfrwt>
<totfact> 0.63250065E+11</totfact>
</mgrwt>
</event>
<event>
 4    1  0.3335341E+006  0.4327361E+01  0.7546771E-02  0.2218770E+00
         22   -1    0    0    0    0  0.00000000000E+00  0.00000000000E+00  0.15328815037E+02  0.15328815037E+02  0.00000000000E+00 0. -1.
         22   -1    0    0    0    0 -0.00000000000E+00 -0.00000000000E+00 -0.13265534791E+01  0.13265534791E+01  0.00000000000E+00 0.  1.
          2    1    1    2  501    0  0.10797350072E+01  0.41904916756E+01  0.46590073799E+01  0.63586480039E+01  0.25500000000E-02 0.  1.
         -2    1    1    2    0  501 -0.10797350072E+01 -0.41904916756E+01  0.93432541777E+01  0.10296720512E+02  0.25500000000E-02 0. -1.
<mgrwt>
<rscale>  0 0.43273612E+01</rscale>
<asrwt>0</asrwt>
<pdfrwt beam="1">0</pdfrwt>
<pdfrwt beam="2">0</pdfrwt>
<totfact> 0.68158576E+11</totfact>
</mgrwt>
</event>
<event>
 4    1  0.3335341E+006  0.3700973E+01  0.7546771E-02  0.2338378E+00
         22   -1    0    0    0    0  0.00000000000E+00  0.00000000000E+00  0.15268391835E+01  0.15268391835E+01  0.00000000000E+00 0.  1.
         22   -1    0    0    0    0 -0.00000000000E+00 -0.00000000000E+00 -0.90751744088E+01  0.90751744088E+01  0.00000000000E+00 0. -1.
          2    1    1    2  501    0  0.92816235316E+00  0.35826963232E+01 -0.43422433936E+01  0.57054607605E+01  0.25500000000E-02 0. -1.
         -2    1    1    2    0  501 -0.92816235316E+00 -0.35826963232E+01 -0.32060918317E+01  0.48965528318E+01  0.25500000000E-02 0.  1.
<mgrwt>
<rscale>  0 0.37009735E+01</rscale>
<asrwt>0</asrwt>
<pdfrwt beam="1">0</pdfrwt>
<pdfrwt beam="2">0</pdfrwt>
<totfact> 0.10984356E+12</totfact>
</mgrwt>
</event>
<event>
 4    1  0.3335341E+006  0.3279852E+01  0.7546771E-02  0.2440515E+00
         22   -1    0    0    0    0  0.00000000000E+00  0.00000000000E+00  0.12050103911E+01  0.12050103911E+01  0.00000000000E+00 0. -1.
         22   -1    0    0    0    0 -0.00000000000E+00 -0.00000000000E+00 -0.90443407854E+01  0.90443407854E+01  0.00000000000E+00 0.  1.
          2    1    1    2  501    0  0.47028433542E+00 -0.32459594278E+01 -0.45027654111E+01  0.55706662809E+01  0.25500000000E-02 0. -1.
         -2    1    1    2    0  501 -0.47028433542E+00  0.32459594278E+01 -0.33365649832E+01  0.46786848957E+01  0.25500000000E-02 0.  1.
<mgrwt>
<rscale>  0 0.32798516E+01</rscale>
<asrwt>0</asrwt>
<pdfrwt beam="1">0</pdfrwt>
<pdfrwt beam="2">0</pdfrwt>
<totfact> 0.14474870E+12</totfact>
</mgrwt>
</event>
<event>
 4    1  0.3335341E+006  0.2402604E+01  0.7546771E-02  0.2753091E+00
         22   -1    0    0    0    0  0.00000000000E+00  0.00000000000E+00  0.16587267801E+02  0.16587267801E+02  0.00000000000E+00 0. -1.
         22   -1    0    0    0    0 -0.00000000000E+00 -0.00000000000E+00 -0.63446413139E+00  0.63446413139E+00  0.00000000000E+00 0.  1.
          2    1    1    2  501    0  0.14959937444E+01 -0.18800272662E+01  0.21904854751E+01  0.32512663569E+01  0.25500000000E-02 0.  1.
         -2    1    1    2    0  501 -0.14959937444E+01  0.18800272662E+01  0.13762318194E+02  0.13970465575E+02  0.25500000000E-02 0. -1.
<mgrwt>
<rscale>  0 0.24026041E+01</rscale>
<asrwt>0</asrwt>
<pdfrwt beam="1">0</pdfrwt>
<pdfrwt beam="2">0</pdfrwt>
<totfact> 0.14338405E+12</totfact>
</mgrwt>
</event>
<event>
 4    1  0.3335341E+006  0.2714769E+01  0.7546771E-02  0.2620804E+00
         22   -1    0    0    0    0  0.00000000000E+00  0.00000000000E+00  0.65255697776E+01  0.65255697776E+01  0.00000000000E+00 0.  1.
         22   -1    0    0    0    0 -0.00000000000E+00 -0.00000000000E+00 -0.12293362729E+01  0.12293362729E+01  0.00000000000E+00 0. -1.
          2    1    1    2  501    0  0.16773294219E+01  0.21346035833E+01  0.37536571621E+01  0.46324847588E+01  0.25500000000E-02 0.  1.
         -2    1    1    2    0  501 -0.16773294219E+01 -0.21346035833E+01  0.15425763426E+01  0.31224212917E+01  0.25500000000E-02 0. -1.
<mgrwt>
<rscale>  0 0.27147694E+01</rscale>
<asrwt>0</asrwt>
<pdfrwt beam="1">0</pdfrwt>
<pdfrwt beam="2">0</pdfrwt>
<totfact> 0.20929173E+12</totfact>
</mgrwt>
</event>
<event>
 4    1  0.3335341E+006  0.2532628E+01  0.7546771E-02  0.2694318E+00
         22   -1    0    0    0    0  0.00000000000E+00  0.00000000000E+00  0.71402061364E+01  0.71402061364E+01  0.00000000000E+00 0. -1.
         22   -1    0    0    0    0 -0.00000000000E+00 -0.00000000000E+00 -0.15629277076E+01  0.15629277076E+01  0.00000000000E+00 0.  1.
          2    1    1    2  501    0 -0.20874178961E+01  0.14341840941E+01 -0.49007121555E-01  0.25331019895E+01  0.25500000000E-02 0.  1.
         -2    1    1    2    0  501  0.20874178961E+01 -0.14341840941E+01  0.56262855503E+01  0.61700318545E+01  0.25500000000E-02 0. -1.
<mgrwt>
<rscale>  0 0.25326279E+01</rscale>
<asrwt>0</asrwt>
<pdfrwt beam="1">0</pdfrwt>
<pdfrwt beam="2">0</pdfrwt>
<totfact> 0.14263759E+12</totfact>
</mgrwt>
</event>
<event>
 4    1  0.3335341E+006  0.2033488E+01  0.7546771E-02  0.2958480E+00
         22   -1    0    0    0    0  0.00000000000E+00  0.00000000000E+00  0.40742063858E+01  0.40742063858E+01  0.00000000000E+00 0. -1.
         22   -1    0    0    0    0 -0.00000000000E+00 -0.00000000000E+00 -0.10405173810E+01  0.10405173810E+01  0.00000000000E+00 0.  1.
          2    1    1    2  501    0 -0.17603636081E+01  0.10179333782E+01  0.11158893222E+01  0.23195438942E+01  0.25500000000E-02 0.  1.
         -2    1    1    2    0  501  0.17603636081E+01 -0.10179333782E+01  0.19177996826E+01  0.27951798726E+01  0.25500000000E-02 0. -1.
<mgrwt>
<rscale>  0 0.20334884E+01</rscale>
<asrwt>0</asrwt>
<pdfrwt beam="1">0</pdfrwt>
<pdfrwt beam="2">0</pdfrwt>
<totfact> 0.44264234E+12</totfact>
</mgrwt>
</event>
<event>
 4    1  0.3335341E+006  0.2061482E+01  0.7546771E-02  0.2940425E+00
         22   -1    0    0    0    0  0.00000000000E+00  0.00000000000E+00  0.24662641654E+01  0.24662641654E+01  0.00000000000E+00 0. -1.
         22   -1    0    0    0    0 -0.00000000000E+00 -0.00000000000E+00 -0.18381513701E+01  0.18381513701E+01  0.00000000000E+00 0.  1.
          2    1    1    2  501    0  0.10537435263E+01 -0.17718145782E+01 -0.22430176942E+00  0.20736489831E+01  0.25500000000E-02 0. -1.
         -2    1    1    2    0  501 -0.10537435263E+01  0.17718145782E+01  0.85241456473E+00  0.22307665524E+01  0.25500000000E-02 0.  1.
<mgrwt>
<rscale>  0 0.20614822E+01</rscale>
<asrwt>0</asrwt>
<pdfrwt beam="1">0</pdfrwt>
<pdfrwt beam="2">0</pdfrwt>
<totfact> 0.41415494E+12</totfact>
</mgrwt>
</event>
<event>
 4    1  0.3335341E+006  0.2591668E+01  0.7546771E-02  0.2669446E+00
         22   -1    0    0    0    0  0.00000000000E+00  0.00000000000E+00  0.93446338314E+01  0.93446338314E+01  0.00000000000E+00 0.  1.
         22   -1    0    0    0    0 -0.00000000000E+00 -0.00000000000E+00 -0.11354141273E+01  0.11354141273E+01  0.00000000000E+00 0. -1.
          2    1    1    2  501    0  0.24462421535E+01 -0.85594255397E+00  0.93041889376E+00  0.27536201898E+01  0.25500000000E-02 0. -1.
         -2    1    1    2    0  501 -0.24462421535E+01  0.85594255397E+00  0.72788008103E+01  0.77264277689E+01  0.25500000000E-02 0.  1.
<mgrwt>
<rscale>  0 0.25916683E+01</rscale>
<asrwt>0</asrwt>
<pdfrwt beam="1">0</pdfrwt>
<pdfrwt beam="2">0</pdfrwt>
<totfact> 0.14895984E+12</totfact>
</mgrwt>
</event>
<event>
 4    1  0.3335341E+006  0.2013310E+01  0.7546771E-02  0.2971799E+00
         22   -1    0    0    0    0  0.00000000000E+00  0.00000000000E+00  0.13736540878E+02  0.13736540878E+02  0.00000000000E+00 0. -1.
         22   -1    0    0    0    0 -0.00000000000E+00 -0.00000000000E+00 -0.16273996187E+01  0.16273996187E+01  0.00000000000E+00 0.  1.
          2    1    1    2  501    0  0.16079716653E+01 -0.12115442125E+01 -0.89614065775E+00  0.22037438227E+01  0.25500000000E-02 0.  1.
         -2    1    1    2    0  501 -0.16079716653E+01  0.12115442125E+01  0.13005281917E+02  0.13160196674E+02  0.25500000000E-02 0. -1.
<mgrwt>
<rscale>  0 0.20133104E+01</rscale>
<asrwt>0</asrwt>
<pdfrwt beam="1">0</pdfrwt>
<pdfrwt beam="2">0</pdfrwt>
<totfact> 0.61644458E+11</totfact>
</mgrwt>
</event>
<event>
 4    1  0.3335341E+006  0.6420194E+01  0.7546771E-02  0.1983935E+00
         22   -1    0    0    0    0  0.00000000000E+00  0.00000000000E+00  0.22272106715E+01  0.22272106715E+01  0.00000000000E+00 0.  1.
         22   -1    0    0    0    0 -0.00000000000E+00 -0.00000000000E+00 -0.20275439854E+02  0.20275439854E+02  0.00000000000E+00 0. -1.
          2    1    1    2  501    0  0.42053507544E+01  0.48511754917E+01 -0.12347030497E+02  0.13916466765E+02  0.25500000000E-02 0. -1.
         -2    1    1    2    0  501 -0.42053507544E+01 -0.48511754917E+01 -0.57011986852E+01  0.85861837605E+01  0.25500000000E-02 0.  1.
<mgrwt>
<rscale>  0 0.64201935E+01</rscale>
<asrwt>0</asrwt>
<pdfrwt beam="1">0</pdfrwt>
<pdfrwt beam="2">0</pdfrwt>
<totfact> 0.26502937E+11</totfact>
</mgrwt>
</event>
<event>
 4    1  0.3335341E+006  0.2283538E+01  0.7546771E-02  0.2812406E+00
         22   -1    0    0    0    0  0.00000000000E+00  0.00000000000E+00  0.94262674917E+00  0.94262674917E+00  0.00000000000E+00 0.  1.
         22   -1    0    0    0    0 -0.00000000000E+00 -0.00000000000E+00 -0.17993462433E+02  0.17993462433E+02  0.00000000000E+00 0. -1.
          2    1    1    2  501    0 -0.68484809674E+00  0.21784215162E+01 -0.16404736726E+02  0.16562908283E+02  0.25500000000E-02 0. -1.
         -2    1    1    2    0  501  0.68484809674E+00 -0.21784215162E+01 -0.64609895796E+00  0.23731808999E+01  0.25500000000E-02 0.  1.
<mgrwt>
<rscale>  0 0.22835375E+01</rscale>
<asrwt>0</asrwt>
<pdfrwt beam="1">0</pdfrwt>
<pdfrwt beam="2">0</pdfrwt>
<totfact> 0.82649917E+11</totfact>
</mgrwt>
</event>
<event>
 4    1  0.3335341E+006  0.2659988E+01  0.7546771E-02  0.2641939E+00
         22   -1    0    0    0    0  0.00000000000E+00  0.00000000000E+00  0.20363843594E+01  0.20363843594E+01  0.00000000000E+00 0.  1.
         22   -1    0    0    0    0 -0.00000000000E+00 -0.00000000000E+00 -0.35290477790E+01  0.35290477790E+01  0.00000000000E+00 0. -1.
          2    1    1    2  501    0  0.22296998111E+00  0.26506254234E+01 -0.40055609950E+00  0.26899781484E+01  0.25500000000E-02 0. -1.
         -2    1    1    2    0  501 -0.22296998111E+00 -0.26506254234E+01 -0.10921073200E+01  0.28754539900E+01  0.25500000000E-02 0.  1.
<mgrwt>
<rscale>  0 0.26599882E+01</rscale>
<asrwt>0</asrwt>
<pdfrwt beam="1">0</pdfrwt>
<pdfrwt beam="2">0</pdfrwt>
<totfact> 0.24211776E+12</totfact>
</mgrwt>
</event>
<event>
 4    1  0.3335341E+006  0.3611966E+01  0.7546771E-02  0.2358232E+00
         22   -1    0    0    0    0  0.00000000000E+00  0.00000000000E+00  0.10238481519E+02  0.10238481519E+02  0.00000000000E+00 0. -1.
         22   -1    0    0    0    0 -0.00000000000E+00 -0.00000000000E+00 -0.14675072161E+01  0.14675072161E+01  0.00000000000E+00 0.  1.
          2    1    1    2  501    0  0.11860994654E+01 -0.34116655247E+01  0.22614350339E+01  0.42615007345E+01  0.25500000000E-02 0.  1.
         -2    1    1    2    0  501 -0.11860994654E+01  0.34116655247E+01  0.65095392691E+01  0.74444880007E+01  0.25500000000E-02 0. -1.
<mgrwt>
<rscale>  0 0.36119662E+01</rscale>
<asrwt>0</asrwt>
<pdfrwt beam="1">0</pdfrwt>
<pdfrwt beam="2">0</pdfrwt>
<totfact> 0.99365687E+11</totfact>
</mgrwt>
</event>
<event>
 4    1  0.3335341E+006  0.2476036E+01  0.7546771E-02  0.2719190E+00
         22   -1    0    0    0    0  0.00000000000E+00  0.00000000000E+00  0.49293386425E+00  0.49293386425E+00  0.00000000000E+00 0.  1.
         22   -1    0    0    0    0 -0.00000000000E+00 -0.00000000000E+00 -0.15893891064E+02  0.15893891064E+02  0.00000000000E+00 0. -1.
          2    1    1    2  501    0  0.44802900364E+00 -0.24351629817E+01 -0.11521461726E+02  0.11784516772E+02  0.25500000000E-02 0.  1.
         -2    1    1    2    0  501 -0.44802900364E+00  0.24351629817E+01 -0.38794954740E+01  0.46023081569E+01  0.25500000000E-02 0. -1.
<mgrwt>
<rscale>  0 0.24760362E+01</rscale>
<asrwt>0</asrwt>
<pdfrwt beam="1">0</pdfrwt>
<pdfrwt beam="2">0</pdfrwt>
<totfact> 0.20109437E+12</totfact>
</mgrwt>
</event>
<event>
 4    1  0.3335341E+006  0.7210131E+01  0.7546771E-02  0.1925601E+00
         22   -1    0    0    0    0  0.00000000000E+00  0.00000000000E+00  0.59964245538E+01  0.59964245538E+01  0.00000000000E+00 0. -1.
         22   -1    0    0    0    0 -0.00000000000E+00 -0.00000000000E+00 -0.86706782916E+01  0.86706782916E+01  0.00000000000E+00 0.  1.
          2    1    1    2  501    0 -0.71782448031E+01 -0.67733588962E+00 -0.14227001335E+01  0.73491540012E+01  0.25500000000E-02 0. -1.
         -2    1    1    2    0  501  0.71782448031E+01  0.67733588962E+00 -0.12515536043E+01  0.73179488443E+01  0.25500000000E-02 0.  1.
<mgrwt>
<rscale>  0 0.72101310E+01</rscale>
<asrwt>0</asrwt>
<pdfrwt beam="1">0</pdfrwt>
<pdfrwt beam="2">0</pdfrwt>
<totfact> 0.23444447E+11</totfact>
</mgrwt>
</event>
<event>
 4    1  0.3335341E+006  0.4376038E+01  0.7546771E-02  0.2210703E+00
         22   -1    0    0    0    0  0.00000000000E+00  0.00000000000E+00  0.18633013421E+01  0.18633013421E+01  0.00000000000E+00 0. -1.
         22   -1    0    0    0    0 -0.00000000000E+00 -0.00000000000E+00 -0.18881223777E+02  0.18881223777E+02  0.00000000000E+00 0.  1.
          2    1    1    2  501    0 -0.43535010321E+01 -0.44354095194E+00 -0.15510713101E+02  0.16116200769E+02  0.25500000000E-02 0.  1.
         -2    1    1    2    0  501  0.43535010321E+01  0.44354095194E+00 -0.15072093338E+01  0.46283243502E+01  0.25500000000E-02 0. -1.
<mgrwt>
<rscale>  0 0.43760377E+01</rscale>
<asrwt>0</asrwt>
<pdfrwt beam="1">0</pdfrwt>
<pdfrwt beam="2">0</pdfrwt>
<totfact> 0.35608026E+11</totfact>
</mgrwt>
</event>
<event>
 4    1  0.3335341E+006  0.2143143E+01  0.7546771E-02  0.2890377E+00
         22   -1    0    0    0    0  0.00000000000E+00  0.00000000000E+00  0.23743297530E+01  0.23743297530E+01  0.00000000000E+00 0. -1.
         22   -1    0    0    0    0 -0.00000000000E+00 -0.00000000000E+00 -0.27252209427E+01  0.27252209427E+01  0.00000000000E+00 0.  1.
          2    1    1    2  501    0 -0.82408969049E+00 -0.19783658287E+01 -0.15489240268E+01  0.26442820034E+01  0.25500000000E-02 0.  1.
         -2    1    1    2    0  501  0.82408969049E+00  0.19783658287E+01  0.11980328371E+01  0.24552686923E+01  0.25500000000E-02 0. -1.
<mgrwt>
<rscale>  0 0.21431429E+01</rscale>
<asrwt>0</asrwt>
<pdfrwt beam="1">0</pdfrwt>
<pdfrwt beam="2">0</pdfrwt>
<totfact> 0.27409782E+12</totfact>
</mgrwt>
</event>
<event>
 4    1  0.3335341E+006  0.2495681E+01  0.7546771E-02  0.2710437E+00
         22   -1    0    0    0    0  0.00000000000E+00  0.00000000000E+00  0.72401147434E+01  0.72401147434E+01  0.00000000000E+00 0.  1.
         22   -1    0    0    0    0 -0.00000000000E+00 -0.00000000000E+00 -0.11987759226E+01  0.11987759226E+01  0.00000000000E+00 0. -1.
          2    1    1    2  501    0 -0.15418811865E+01 -0.19624012230E+01  0.77848035496E+00  0.26142789290E+01  0.25500000000E-02 0. -1.
         -2    1    1    2    0  501  0.15418811865E+01  0.19624012230E+01  0.52628584659E+01  0.58246117371E+01  0.25500000000E-02 0.  1.
<mgrwt>
<rscale>  0 0.24956808E+01</rscale>
<asrwt>0</asrwt>
<pdfrwt beam="1">0</pdfrwt>
<pdfrwt beam="2">0</pdfrwt>
<totfact> 0.19025138E+12</totfact>
</mgrwt>
</event>
<event>
 4    1  0.3335341E+006  0.2295159E+01  0.7546771E-02  0.2806360E+00
         22   -1    0    0    0    0  0.00000000000E+00  0.00000000000E+00  0.12930635065E+00  0.12930635065E+00  0.00000000000E+00 0.  1.
         22   -1    0    0    0    0 -0.00000000000E+00 -0.00000000000E+00 -0.52693837345E+02  0.52693837345E+02  0.00000000000E+00 0. -1.
          2    1    1    2  501    0  0.13341094743E+01 -0.18675915097E+01 -0.38862664854E+02  0.38930379810E+02  0.25500000000E-02 0.  1.
         -2    1    1    2    0  501 -0.13341094743E+01  0.18675915097E+01 -0.13701866141E+02  0.13892763886E+02  0.25500000000E-02 0. -1.
<mgrwt>
<rscale>  0 0.22951585E+01</rscale>
<asrwt>0</asrwt>
<pdfrwt beam="1">0</pdfrwt>
<pdfrwt beam="2">0</pdfrwt>
<totfact> 0.19520606E+12</totfact>
</mgrwt>
</event>
<event>
 4    1  0.3335341E+006  0.2094759E+01  0.7546771E-02  0.2919573E+00
         22   -1    0    0    0    0  0.00000000000E+00  0.00000000000E+00  0.71536884889E+00  0.71536884889E+00  0.00000000000E+00 0.  1.
         22   -1    0    0    0    0 -0.00000000000E+00 -0.00000000000E+00 -0.97219028947E+01  0.97219028947E+01  0.00000000000E+00 0. -1.
          2    1    1    2  501    0  0.20511873228E+01  0.42501826345E+00 -0.76736113919E+01  0.79543905017E+01  0.25500000000E-02 0. -1.
         -2    1    1    2    0  501 -0.20511873228E+01 -0.42501826345E+00 -0.13329226539E+01  0.24828812419E+01  0.25500000000E-02 0.  1.
<mgrwt>
<rscale>  0 0.20947593E+01</rscale>
<asrwt>0</asrwt>
<pdfrwt beam="1">0</pdfrwt>
<pdfrwt beam="2">0</pdfrwt>
<totfact> 0.24041393E+12</totfact>
</mgrwt>
</event>
<event>
 4    1  0.3335341E+006  0.2697917E+01  0.7546771E-02  0.2627222E+00
         22   -1    0    0    0    0  0.00000000000E+00  0.00000000000E+00  0.65652499136E+00  0.65652499136E+00  0.00000000000E+00 0.  1.
         22   -1    0    0    0    0 -0.00000000000E+00 -0.00000000000E+00 -0.12409526476E+02  0.12409526476E+02  0.00000000000E+00 0. -1.
          2    1    1    2  501    0  0.14894296631E+01 -0.22495220550E+01 -0.80094127099E+01  0.84515944447E+01  0.25500000000E-02 0. -1.
         -2    1    1    2    0  501 -0.14894296631E+01  0.22495220550E+01 -0.37435887744E+01  0.46144570223E+01  0.25500000000E-02 0.  1.
<mgrwt>
<rscale>  0 0.26979171E+01</rscale>
<asrwt>0</asrwt>
<pdfrwt beam="1">0</pdfrwt>
<pdfrwt beam="2">0</pdfrwt>
<totfact> 0.19700576E+12</totfact>
</mgrwt>
</event>
<event>
 4    1  0.3335341E+006  0.2371608E+01  0.7546771E-02  0.2767991E+00
         22   -1    0    0    0    0  0.00000000000E+00  0.00000000000E+00  0.68440827934E+00  0.68440827934E+00  0.00000000000E+00 0.  1.
         22   -1    0    0    0    0 -0.00000000000E+00 -0.00000000000E+00 -0.84100059882E+01  0.84100059882E+01  0.00000000000E+00 0. -1.
          2    1    1    2  501    0 -0.23129937550E+01  0.52400018924E+00 -0.45497282845E+01  0.51307455866E+01  0.25500000000E-02 0.  1.
         -2    1    1    2    0  501  0.23129937550E+01 -0.52400018924E+00 -0.31758694244E+01  0.39636686810E+01  0.25500000000E-02 0. -1.
<mgrwt>
<rscale>  0 0.23716076E+01</rscale>
<asrwt>0</asrwt>
<pdfrwt beam="1">0</pdfrwt>
<pdfrwt beam="2">0</pdfrwt>
<totfact> 0.30112796E+12</totfact>
</mgrwt>
</event>
<event>
 4    1  0.3335341E+006  0.2597020E+01  0.7546771E-02  0.2667243E+00
         22   -1    0    0    0    0  0.00000000000E+00  0.00000000000E+00  0.38451420318E+01  0.38451420318E+01  0.00000000000E+00 0. -1.
         22   -1    0    0    0    0 -0.00000000000E+00 -0.00000000000E+00 -0.36388152351E+01  0.36388152351E+01  0.00000000000E+00 0.  1.
          2    1    1    2  501    0  0.10009965537E+01  0.23963536510E+01 -0.25899319448E+01  0.36677321198E+01  0.25500000000E-02 0.  1.
         -2    1    1    2    0  501 -0.10009965537E+01 -0.23963536510E+01  0.27962587415E+01  0.38162251471E+01  0.25500000000E-02 0. -1.
<mgrwt>
<rscale>  0 0.25970197E+01</rscale>
<asrwt>0</asrwt>
<pdfrwt beam="1">0</pdfrwt>
<pdfrwt beam="2">0</pdfrwt>
<totfact> 0.11128302E+12</totfact>
</mgrwt>
</event>
<event>
 4    1  0.3335341E+006  0.4386648E+01  0.7546771E-02  0.2208964E+00
         22   -1    0    0    0    0  0.00000000000E+00  0.00000000000E+00  0.10822978176E+02  0.10822978176E+02  0.00000000000E+00 0.  1.
         22   -1    0    0    0    0 -0.00000000000E+00 -0.00000000000E+00 -0.19643658444E+01  0.19643658444E+01  0.00000000000E+00 0. -1.
          2    1    1    2  501    0 -0.30935561019E+01 -0.31100780846E+01  0.24596787744E+01  0.50291849462E+01  0.25500000000E-02 0. -1.
         -2    1    1    2    0  501  0.30935561019E+01  0.31100780846E+01  0.63989335575E+01  0.77581590744E+01  0.25500000000E-02 0.  1.
<mgrwt>
<rscale>  0 0.43866481E+01</rscale>
<asrwt>0</asrwt>
<pdfrwt beam="1">0</pdfrwt>
<pdfrwt beam="2">0</pdfrwt>
<totfact> 0.66359233E+11</totfact>
</mgrwt>
</event>
<event>
 4    1  0.3335341E+006  0.2225456E+01  0.7546771E-02  0.2843521E+00
         22   -1    0    0    0    0  0.00000000000E+00  0.00000000000E+00  0.27108934456E+02  0.27108934456E+02  0.00000000000E+00 0.  1.
         22   -1    0    0    0    0 -0.00000000000E+00 -0.00000000000E+00 -0.20190520848E+00  0.20190520848E+00  0.00000000000E+00 0. -1.
          2    1    1    2  501    0  0.53605168410E+00 -0.21599297793E+01  0.92413781937E+01  0.95055628703E+01  0.25500000000E-02 0. -1.
         -2    1    1    2    0  501 -0.53605168410E+00  0.21599297793E+01  0.17665651054E+02  0.17805276795E+02  0.25500000000E-02 0.  1.
<mgrwt>
<rscale>  0 0.22254560E+01</rscale>
<asrwt>0</asrwt>
<pdfrwt beam="1">0</pdfrwt>
<pdfrwt beam="2">0</pdfrwt>
<totfact> 0.28092426E+12</totfact>
</mgrwt>
</event>
<event>
 4    1  0.3335341E+006  0.2631100E+01  0.7546771E-02  0.2653410E+00
         22   -1    0    0    0    0  0.00000000000E+00  0.00000000000E+00  0.46141464595E+01  0.46141464595E+01  0.00000000000E+00 0. -1.
         22   -1    0    0    0    0 -0.00000000000E+00 -0.00000000000E+00 -0.50245913229E+01  0.50245913229E+01  0.00000000000E+00 0.  1.
          2    1    1    2  501    0  0.10278933276E+01  0.24220067544E+01 -0.42414400785E+01  0.49912425159E+01  0.25500000000E-02 0.  1.
         -2    1    1    2    0  501 -0.10278933276E+01 -0.24220067544E+01  0.38309952151E+01  0.46474952665E+01  0.25500000000E-02 0. -1.
<mgrwt>
<rscale>  0 0.26311001E+01</rscale>
<asrwt>0</asrwt>
<pdfrwt beam="1">0</pdfrwt>
<pdfrwt beam="2">0</pdfrwt>
<totfact> 0.61364050E+11</totfact>
</mgrwt>
</event>
<event>
 4    1  0.3335341E+006  0.4290111E+01  0.7546771E-02  0.2225047E+00
         22   -1    0    0    0    0  0.00000000000E+00  0.00000000000E+00  0.19621606913E+01  0.19621606913E+01  0.00000000000E+00 0. -1.
         22   -1    0    0    0    0 -0.00000000000E+00 -0.00000000000E+00 -0.93968252000E+01  0.93968252000E+01  0.00000000000E+00 0.  1.
          2    1    1    2  501    0 -0.16838168682E+01  0.39458589326E+01 -0.34769386766E+01  0.55221509419E+01  0.25500000000E-02 0. -1.
         -2    1    1    2    0  501  0.16838168682E+01 -0.39458589326E+01 -0.39577258321E+01  0.58368349493E+01  0.25500000000E-02 0.  1.
<mgrwt>
<rscale>  0 0.42901105E+01</rscale>
<asrwt>0</asrwt>
<pdfrwt beam="1">0</pdfrwt>
<pdfrwt beam="2">0</pdfrwt>
<totfact> 0.78849154E+11</totfact>
</mgrwt>
</event>
<event>
 4    1  0.3335341E+006  0.2541758E+01  0.7546771E-02  0.2690402E+00
         22   -1    0    0    0    0  0.00000000000E+00  0.00000000000E+00  0.41403985976E+01  0.41403985976E+01  0.00000000000E+00 0.  1.
         22   -1    0    0    0    0 -0.00000000000E+00 -0.00000000000E+00 -0.18004292158E+01  0.18004292158E+01  0.00000000000E+00 0. -1.
          2    1    1    2  501    0  0.25413216413E+01 -0.47047530531E-01  0.85328523225E-01  0.25431902433E+01  0.25500000000E-02 0. -1.
         -2    1    1    2    0  501 -0.25413216413E+01  0.47047530531E-01  0.22546408586E+01  0.33976375701E+01  0.25500000000E-02 0.  1.
<mgrwt>
<rscale>  0 0.25417584E+01</rscale>
<asrwt>0</asrwt>
<pdfrwt beam="1">0</pdfrwt>
<pdfrwt beam="2">0</pdfrwt>
<totfact> 0.23137708E+12</totfact>
</mgrwt>
</event>
<event>
 4    1  0.3335341E+006  0.2391075E+01  0.7546771E-02  0.2758590E+00
         22   -1    0    0    0    0  0.00000000000E+00  0.00000000000E+00  0.28425357089E+02  0.28425357089E+02  0.00000000000E+00 0. -1.
         22   -1    0    0    0    0 -0.00000000000E+00 -0.00000000000E+00 -0.20615448186E+00  0.20615448186E+00  0.00000000000E+00 0.  1.
          2    1    1    2  501    0 -0.17684491441E+01  0.16092923518E+01  0.11875054239E+02  0.12113387385E+02  0.25500000000E-02 0.  1.
         -2    1    1    2    0  501  0.17684491441E+01 -0.16092923518E+01  0.16344148368E+02  0.16518124186E+02  0.25500000000E-02 0. -1.
<mgrwt>
<rscale>  0 0.23910752E+01</rscale>
<asrwt>0</asrwt>
<pdfrwt beam="1">0</pdfrwt>
<pdfrwt beam="2">0</pdfrwt>
<totfact> 0.25845276E+12</totfact>
</mgrwt>
</event>
<event>
 4    1  0.3335341E+006  0.2845066E+01  0.7546771E-02  0.2573530E+00
         22   -1    0    0    0    0  0.00000000000E+00  0.00000000000E+00  0.11632866781E+02  0.11632866781E+02  0.00000000000E+00 0.  1.
         22   -1    0    0    0    0 -0.00000000000E+00 -0.00000000000E+00 -0.10518673739E+01  0.10518673739E+01  0.00000000000E+00 0. -1.
          2    1    1    2  501    0 -0.78209177205E+00 -0.27354576581E+01  0.89804767077E+01  0.94203696604E+01  0.25500000000E-02 0.  1.
         -2    1    1    2    0  501  0.78209177205E+00  0.27354576581E+01  0.16005226995E+01  0.32643644946E+01  0.25500000000E-02 0. -1.
<mgrwt>
<rscale>  0 0.28450664E+01</rscale>
<asrwt>0</asrwt>
<pdfrwt beam="1">0</pdfrwt>
<pdfrwt beam="2">0</pdfrwt>
<totfact> 0.12464419E+12</totfact>
</mgrwt>
</event>
<event>
 4    1  0.3335341E+006  0.2033534E+01  0.7546771E-02  0.2958451E+00
         22   -1    0    0    0    0  0.00000000000E+00  0.00000000000E+00  0.14423359968E+01  0.14423359968E+01  0.00000000000E+00 0.  1.
         22   -1    0    0    0    0 -0.00000000000E+00 -0.00000000000E+00 -0.60508452983E+01  0.60508452983E+01  0.00000000000E+00 0. -1.
          2    1    1    2  501    0 -0.91461257643E+00  0.18162425397E+01 -0.50219470867E+01  0.54180450508E+01  0.25500000000E-02 0. -1.
         -2    1    1    2    0  501  0.91461257643E+00 -0.18162425397E+01  0.41343778514E+00  0.20751362443E+01  0.25500000000E-02 0.  1.
<mgrwt>
<rscale>  0 0.20335338E+01</rscale>
<asrwt>0</asrwt>
<pdfrwt beam="1">0</pdfrwt>
<pdfrwt beam="2">0</pdfrwt>
<totfact> 0.19061075E+12</totfact>
</mgrwt>
</event>
<event>
 4    1  0.3335341E+006  0.2338091E+01  0.7546771E-02  0.2784521E+00
         22   -1    0    0    0    0  0.00000000000E+00  0.00000000000E+00  0.11089181619E+02  0.11089181619E+02  0.00000000000E+00 0. -1.
         22   -1    0    0    0    0 -0.00000000000E+00 -0.00000000000E+00 -0.71158676275E+00  0.71158676275E+00  0.00000000000E+00 0.  1.
          2    1    1    2  501    0  0.42076370952E+00 -0.22999175595E+01  0.19183670483E+01  0.30243679528E+01  0.25500000000E-02 0.  1.
         -2    1    1    2    0  501 -0.42076370952E+00  0.22999175595E+01  0.84592278078E+01  0.87764004287E+01  0.25500000000E-02 0. -1.
<mgrwt>
<rscale>  0 0.23380910E+01</rscale>
<asrwt>0</asrwt>
<pdfrwt beam="1">0</pdfrwt>
<pdfrwt beam="2">0</pdfrwt>
<totfact> 0.20620414E+12</totfact>
</mgrwt>
</event>
<event>
 4    1  0.3335341E+006  0.2056979E+01  0.7546771E-02  0.2943297E+00
         22   -1    0    0    0    0  0.00000000000E+00  0.00000000000E+00  0.24115468006E+01  0.24115468006E+01  0.00000000000E+00 0.  1.
         22   -1    0    0    0    0 -0.00000000000E+00 -0.00000000000E+00 -0.18115589827E+01  0.18115589827E+01  0.00000000000E+00 0. -1.
          2    1    1    2  501    0 -0.61448990594E+00  0.19630478801E+01 -0.74613167714E-01  0.20583314726E+01  0.25500000000E-02 0.  1.
         -2    1    1    2    0  501  0.61448990594E+00 -0.19630478801E+01  0.67460098554E+00  0.21647743107E+01  0.25500000000E-02 0. -1.
<mgrwt>
<rscale>  0 0.20569787E+01</rscale>
<asrwt>0</asrwt>
<pdfrwt beam="1">0</pdfrwt>
<pdfrwt beam="2">0</pdfrwt>
<totfact> 0.43231569E+12</totfact>
</mgrwt>
</event>
<event>
 4    1  0.3335341E+006  0.2112320E+01  0.7546771E-02  0.2908827E+00
         22   -1    0    0    0    0  0.00000000000E+00  0.00000000000E+00  0.28703892265E+00  0.28703892265E+00  0.00000000000E+00 0. -1.
         22   -1    0    0    0    0 -0.00000000000E+00 -0.00000000000E+00 -0.27991689799E+02  0.27991689799E+02  0.00000000000E+00 0.  1.
          2    1    1    2  501    0  0.19239594961E+01 -0.87193424879E+00 -0.23280981671E+02  0.23376612320E+02  0.25500000000E-02 0.  1.
         -2    1    1    2    0  501 -0.19239594961E+01  0.87193424879E+00 -0.44236692048E+01  0.49021164014E+01  0.25500000000E-02 0. -1.
<mgrwt>
<rscale>  0 0.21123200E+01</rscale>
<asrwt>0</asrwt>
<pdfrwt beam="1">0</pdfrwt>
<pdfrwt beam="2">0</pdfrwt>
<totfact> 0.18200723E+12</totfact>
</mgrwt>
</event>
<event>
 4    1  0.3335341E+006  0.2032682E+01  0.7546771E-02  0.2959008E+00
         22   -1    0    0    0    0  0.00000000000E+00  0.00000000000E+00  0.98004371704E+00  0.98004371704E+00  0.00000000000E+00 0.  1.
         22   -1    0    0    0    0 -0.00000000000E+00 -0.00000000000E+00 -0.76701485906E+01  0.76701485906E+01  0.00000000000E+00 0. -1.
          2    1    1    2  501    0  0.17653926349E+01  0.10075600615E+01 -0.62475297674E+01  0.65698876040E+01  0.25500000000E-02 0. -1.
         -2    1    1    2    0  501 -0.17653926349E+01 -0.10075600615E+01 -0.44257510613E+00  0.20803047036E+01  0.25500000000E-02 0.  1.
<mgrwt>
<rscale>  0 0.20326817E+01</rscale>
<asrwt>0</asrwt>
<pdfrwt beam="1">0</pdfrwt>
<pdfrwt beam="2">0</pdfrwt>
<totfact> 0.22351846E+12</totfact>
</mgrwt>
</event>
<event>
 4    1  0.3335341E+006  0.2722874E+01  0.7546771E-02  0.2617744E+00
         22   -1    0    0    0    0  0.00000000000E+00  0.00000000000E+00  0.58991402740E+01  0.58991402740E+01  0.00000000000E+00 0. -1.
         22   -1    0    0    0    0 -0.00000000000E+00 -0.00000000000E+00 -0.12633339946E+01  0.12633339946E+01  0.00000000000E+00 0.  1.
          2    1    1    2  501    0 -0.18072900103E+01 -0.20365996013E+01  0.20603591546E+01  0.34145455724E+01  0.25500000000E-02 0.  1.
         -2    1    1    2    0  501  0.18072900103E+01  0.20365996013E+01  0.25754471248E+01  0.37479286963E+01  0.25500000000E-02 0. -1.
<mgrwt>
<rscale>  0 0.27228738E+01</rscale>
<asrwt>0</asrwt>
<pdfrwt beam="1">0</pdfrwt>
<pdfrwt beam="2">0</pdfrwt>
<totfact> 0.22876881E+12</totfact>
</mgrwt>
</event>
<event>
 4    1  0.3335341E+006  0.2032612E+01  0.7546771E-02  0.2959053E+00
         22   -1    0    0    0    0  0.00000000000E+00  0.00000000000E+00  0.18619637306E+01  0.18619637306E+01  0.00000000000E+00 0. -1.
         22   -1    0    0    0    0 -0.00000000000E+00 -0.00000000000E+00 -0.22215762635E+01  0.22215762635E+01  0.00000000000E+00 0.  1.
          2    1    1    2  501    0 -0.19906609765E+01  0.41082285427E+00 -0.25066046801E+00  0.20480096957E+01  0.25500000000E-02 0.  1.
         -2    1    1    2    0  501  0.19906609765E+01 -0.41082285427E+00 -0.10895206494E+00  0.20355302984E+01  0.25500000000E-02 0. -1.
<mgrwt>
<rscale>  0 0.20326124E+01</rscale>
<asrwt>0</asrwt>
<pdfrwt beam="1">0</pdfrwt>
<pdfrwt beam="2">0</pdfrwt>
<totfact> 0.46068555E+12</totfact>
</mgrwt>
</event>
<event>
 4    1  0.3335341E+006  0.2630055E+01  0.7546771E-02  0.2653829E+00
         22   -1    0    0    0    0  0.00000000000E+00  0.00000000000E+00  0.15026099853E+02  0.15026099853E+02  0.00000000000E+00 0. -1.
         22   -1    0    0    0    0 -0.00000000000E+00 -0.00000000000E+00 -0.65274950979E+01  0.65274950979E+01  0.00000000000E+00 0.  1.
          2    1    1    2  501    0  0.40687899219E+00  0.25983903624E+01 -0.61405365530E+01  0.66800732519E+01  0.25500000000E-02 0.  1.
         -2    1    1    2    0  501 -0.40687899219E+00 -0.25983903624E+01  0.14639141308E+02  0.14873521699E+02  0.25500000000E-02 0. -1.
<mgrwt>
<rscale>  0 0.26300550E+01</rscale>
<asrwt>0</asrwt>
<pdfrwt beam="1">0</pdfrwt>
<pdfrwt beam="2">0</pdfrwt>
<totfact> 0.10850308E+11</totfact>
</mgrwt>
</event>
<event>
 4    1  0.3335341E+006  0.2028374E+01  0.7546771E-02  0.2961832E+00
         22   -1    0    0    0    0  0.00000000000E+00  0.00000000000E+00  0.54496861568E+01  0.54496861568E+01  0.00000000000E+00 0.  1.
         22   -1    0    0    0    0 -0.00000000000E+00 -0.00000000000E+00 -0.86594484652E+00  0.86594484652E+00  0.00000000000E+00 0. -1.
          2    1    1    2  501    0 -0.19868101630E+01 -0.40850721248E+00  0.11613670062E+01  0.23373216707E+01  0.25500000000E-02 0. -1.
         -2    1    1    2    0  501  0.19868101630E+01  0.40850721248E+00  0.34223743041E+01  0.39783093327E+01  0.25500000000E-02 0.  1.
<mgrwt>
<rscale>  0 0.20283736E+01</rscale>
<asrwt>0</asrwt>
<pdfrwt beam="1">0</pdfrwt>
<pdfrwt beam="2">0</pdfrwt>
<totfact> 0.38701085E+12</totfact>
</mgrwt>
</event>
<event>
 4    1  0.3335341E+006  0.2243620E+01  0.7546771E-02  0.2833626E+00
         22   -1    0    0    0    0  0.00000000000E+00  0.00000000000E+00  0.11490840781E+01  0.11490840781E+01  0.00000000000E+00 0.  1.
         22   -1    0    0    0    0 -0.00000000000E+00 -0.00000000000E+00 -0.91131433537E+01  0.91131433537E+01  0.00000000000E+00 0. -1.
          2    1    1    2  501    0 -0.21164000786E+01  0.74476365938E+00 -0.76796201173E+01  0.80006495892E+01  0.25500000000E-02 0. -1.
         -2    1    1    2    0  501  0.21164000786E+01 -0.74476365938E+00 -0.28443915837E+00  0.22615778426E+01  0.25500000000E-02 0.  1.
<mgrwt>
<rscale>  0 0.22436196E+01</rscale>
<asrwt>0</asrwt>
<pdfrwt beam="1">0</pdfrwt>
<pdfrwt beam="2">0</pdfrwt>
<totfact> 0.15144540E+12</totfact>
</mgrwt>
</event>
<event>
 4    1  0.3335341E+006  0.2313428E+01  0.7546771E-02  0.2796973E+00
         22   -1    0    0    0    0  0.00000000000E+00  0.00000000000E+00  0.58988139967E+00  0.58988139967E+00  0.00000000000E+00 0. -1.
         22   -1    0    0    0    0 -0.00000000000E+00 -0.00000000000E+00 -0.14793120850E+02  0.14793120850E+02  0.00000000000E+00 0.  1.
          2    1    1    2  501    0 -0.17959310216E+01  0.14582777773E+01 -0.11884469184E+02  0.12107541311E+02  0.25500000000E-02 0.  1.
         -2    1    1    2    0  501  0.17959310216E+01 -0.14582777773E+01 -0.23187702663E+01  0.32754609386E+01  0.25500000000E-02 0. -1.
<mgrwt>
<rscale>  0 0.23134279E+01</rscale>
<asrwt>0</asrwt>
<pdfrwt beam="1">0</pdfrwt>
<pdfrwt beam="2">0</pdfrwt>
<totfact> 0.17932193E+12</totfact>
</mgrwt>
</event>
<event>
 4    1  0.3335341E+006  0.2779464E+01  0.7546771E-02  0.2596827E+00
         22   -1    0    0    0    0  0.00000000000E+00  0.00000000000E+00  0.46908495289E+01  0.46908495289E+01  0.00000000000E+00 0. -1.
         22   -1    0    0    0    0 -0.00000000000E+00 -0.00000000000E+00 -0.33156346696E+01  0.33156346696E+01  0.00000000000E+00 0.  1.
          2    1    1    2  501    0  0.27653002758E+01  0.28023227403E+00 -0.21524062984E+01  0.35154338450E+01  0.25500000000E-02 0.  1.
         -2    1    1    2    0  501 -0.27653002758E+01 -0.28023227403E+00  0.35276211577E+01  0.44910503535E+01  0.25500000000E-02 0. -1.
<mgrwt>
<rscale>  0 0.27794644E+01</rscale>
<asrwt>0</asrwt>
<pdfrwt beam="1">0</pdfrwt>
<pdfrwt beam="2">0</pdfrwt>
<totfact> 0.98181057E+11</totfact>
</mgrwt>
</event>
<event>
 4    1  0.3335341E+006  0.3643224E+01  0.7546771E-02  0.2351164E+00
         22   -1    0    0    0    0  0.00000000000E+00  0.00000000000E+00  0.20558090910E+01  0.20558090910E+01  0.00000000000E+00 0. -1.
         22   -1    0    0    0    0 -0.00000000000E+00 -0.00000000000E+00 -0.70089583193E+01  0.70089583193E+01  0.00000000000E+00 0.  1.
          2    1    1    2  501    0  0.27668431172E+01  0.23701591605E+01 -0.37491907010E+01  0.52277636419E+01  0.25500000000E-02 0.  1.
         -2    1    1    2    0  501 -0.27668431172E+01 -0.23701591605E+01 -0.12039585273E+01  0.38370037684E+01  0.25500000000E-02 0. -1.
<mgrwt>
<rscale>  0 0.36432241E+01</rscale>
<asrwt>0</asrwt>
<pdfrwt beam="1">0</pdfrwt>
<pdfrwt beam="2">0</pdfrwt>
<totfact> 0.10627067E+12</totfact>
</mgrwt>
</event>
<event>
 4    1  0.3335341E+006  0.2107175E+01  0.7546771E-02  0.2911957E+00
         22   -1    0    0    0    0  0.00000000000E+00  0.00000000000E+00  0.10911987179E+02  0.10911987179E+02  0.00000000000E+00 0.  1.
         22   -1    0    0    0    0 -0.00000000000E+00 -0.00000000000E+00 -0.10094866464E+01  0.10094866464E+01  0.00000000000E+00 0. -1.
          2    1    1    2  501    0 -0.20864652105E+01 -0.29469280573E+00  0.34596943141E+00  0.21353880852E+01  0.25500000000E-02 0. -1.
         -2    1    1    2    0  501  0.20864652105E+01  0.29469280573E+00  0.95565311010E+01  0.97860857400E+01  0.25500000000E-02 0.  1.
<mgrwt>
<rscale>  0 0.21071752E+01</rscale>
<asrwt>0</asrwt>
<pdfrwt beam="1">0</pdfrwt>
<pdfrwt beam="2">0</pdfrwt>
<totfact> 0.14120042E+12</totfact>
</mgrwt>
</event>
<event>
 4    1  0.3335341E+006  0.2239153E+01  0.7546771E-02  0.2836045E+00
         22   -1    0    0    0    0  0.00000000000E+00  0.00000000000E+00  0.40459398446E+01  0.40459398446E+01  0.00000000000E+00 0.  1.
         22   -1    0    0    0    0 -0.00000000000E+00 -0.00000000000E+00 -0.16406237797E+01  0.16406237797E+01  0.00000000000E+00 0. -1.
          2    1    1    2  501    0  0.36009692169E+00 -0.22100068858E+01  0.26090504456E+01  0.34381609849E+01  0.25500000000E-02 0.  1.
         -2    1    1    2    0  501 -0.36009692169E+00  0.22100068858E+01 -0.20373438069E+00  0.22484026393E+01  0.25500000000E-02 0. -1.
<mgrwt>
<rscale>  0 0.22391531E+01</rscale>
<asrwt>0</asrwt>
<pdfrwt beam="1">0</pdfrwt>
<pdfrwt beam="2">0</pdfrwt>
<totfact> 0.26465603E+12</totfact>
</mgrwt>
</event>
<event>
 4    1  0.3335341E+006  0.2538684E+01  0.7546771E-02  0.2691718E+00
         22   -1    0    0    0    0  0.00000000000E+00  0.00000000000E+00  0.13196614323E+00  0.13196614323E+00  0.00000000000E+00 0. -1.
         22   -1    0    0    0    0 -0.00000000000E+00 -0.00000000000E+00 -0.55348935781E+02  0.55348935781E+02  0.00000000000E+00 0.  1.
          2    1    1    2  501    0 -0.22937399622E+01  0.10879636217E+01 -0.18093836244E+02  0.18271065223E+02  0.25500000000E-02 0. -1.
         -2    1    1    2    0  501  0.22937399622E+01 -0.10879636217E+01 -0.37123133394E+02  0.37209836701E+02  0.25500000000E-02 0.  1.
<mgrwt>
<rscale>  0 0.25386836E+01</rscale>
<asrwt>0</asrwt>
<pdfrwt beam="1">0</pdfrwt>
<pdfrwt beam="2">0</pdfrwt>
<totfact> 0.17879809E+12</totfact>
</mgrwt>
</event>
<event>
 4    1  0.3335341E+006  0.4333482E+01  0.7546771E-02  0.2217747E+00
         22   -1    0    0    0    0  0.00000000000E+00  0.00000000000E+00  0.27041302869E+01  0.27041302869E+01  0.00000000000E+00 0. -1.
         22   -1    0    0    0    0 -0.00000000000E+00 -0.00000000000E+00 -0.26564721409E+02  0.26564721409E+02  0.00000000000E+00 0.  1.
          2    1    1    2  501    0 -0.43128080584E+01 -0.42278652247E+00 -0.24507208182E+02  0.24887392816E+02  0.25500000000E-02 0.  1.
         -2    1    1    2    0  501  0.43128080584E+01  0.42278652247E+00  0.64661706004E+00  0.43814588800E+01  0.25500000000E-02 0. -1.
<mgrwt>
<rscale>  0 0.43334822E+01</rscale>
<asrwt>0</asrwt>
<pdfrwt beam="1">0</pdfrwt>
<pdfrwt beam="2">0</pdfrwt>
<totfact> 0.15062158E+11</totfact>
</mgrwt>
</event>
<event>
 4    1  0.3335341E+006  0.2591627E+01  0.7546771E-02  0.2669463E+00
         22   -1    0    0    0    0  0.00000000000E+00  0.00000000000E+00  0.77932276270E+00  0.77932276270E+00  0.00000000000E+00 0. -1.
         22   -1    0    0    0    0 -0.00000000000E+00 -0.00000000000E+00 -0.10168110982E+02  0.10168110982E+02  0.00000000000E+00 0.  1.
          2    1    1    2  501    0  0.25915723428E+01  0.16699574820E-01 -0.68312952841E+01  0.73063758351E+01  0.25500000000E-02 0.  1.
         -2    1    1    2    0  501 -0.25915723428E+01 -0.16699574820E-01 -0.25574929348E+01  0.36410579091E+01  0.25500000000E-02 0. -1.
<mgrwt>
<rscale>  0 0.25916274E+01</rscale>
<asrwt>0</asrwt>
<pdfrwt beam="1">0</pdfrwt>
<pdfrwt beam="2">0</pdfrwt>
<totfact> 0.20660506E+12</totfact>
</mgrwt>
</event>
<event>
 4    1  0.3335341E+006  0.2464810E+01  0.7546771E-02  0.2724250E+00
         22   -1    0    0    0    0  0.00000000000E+00  0.00000000000E+00  0.11608272425E+01  0.11608272425E+01  0.00000000000E+00 0.  1.
         22   -1    0    0    0    0 -0.00000000000E+00 -0.00000000000E+00 -0.52346850354E+01  0.52346850354E+01  0.00000000000E+00 0. -1.
          2    1    1    2  501    0 -0.12075034693E+01  0.21487711258E+01 -0.19905811145E+01  0.31682332072E+01  0.25500000000E-02 0. -1.
         -2    1    1    2    0  501  0.12075034693E+01 -0.21487711258E+01 -0.20832766784E+01  0.32272790707E+01  0.25500000000E-02 0.  1.
<mgrwt>
<rscale>  0 0.24648100E+01</rscale>
<asrwt>0</asrwt>
<pdfrwt beam="1">0</pdfrwt>
<pdfrwt beam="2">0</pdfrwt>
<totfact> 0.29049632E+12</totfact>
</mgrwt>
</event>
<event>
 4    1  0.3335341E+006  0.2164972E+01  0.7546771E-02  0.2877617E+00
         22   -1    0    0    0    0  0.00000000000E+00  0.00000000000E+00  0.47999649430E+01  0.47999649430E+01  0.00000000000E+00 0. -1.
         22   -1    0    0    0    0 -0.00000000000E+00 -0.00000000000E+00 -0.59399021725E+01  0.59399021725E+01  0.00000000000E+00 0.  1.
          2    1    1    2  501    0 -0.97706449290E+00 -0.19319532007E+01 -0.54787032609E+01  0.58909501879E+01  0.25500000000E-02 0.  1.
         -2    1    1    2    0  501  0.97706449290E+00  0.19319532007E+01  0.43387660314E+01  0.48489169276E+01  0.25500000000E-02 0. -1.
<mgrwt>
<rscale>  0 0.21649722E+01</rscale>
<asrwt>0</asrwt>
<pdfrwt beam="1">0</pdfrwt>
<pdfrwt beam="2">0</pdfrwt>
<totfact> 0.48011617E+11</totfact>
</mgrwt>
</event>
<event>
 4    1  0.3335341E+006  0.2095853E+01  0.7546771E-02  0.2918899E+00
         22   -1    0    0    0    0  0.00000000000E+00  0.00000000000E+00  0.71962852176E+01  0.71962852176E+01  0.00000000000E+00 0.  1.
         22   -1    0    0    0    0 -0.00000000000E+00 -0.00000000000E+00 -0.49998181408E+01  0.49998181408E+01  0.00000000000E+00 0. -1.
          2    1    1    2  501    0 -0.13538631699E+01 -0.15998894803E+01 -0.46154682665E+01  0.50690379416E+01  0.25500000000E-02 0. -1.
         -2    1    1    2    0  501  0.13538631699E+01  0.15998894803E+01  0.68119353432E+01  0.71270654168E+01  0.25500000000E-02 0.  1.
<mgrwt>
<rscale>  0 0.20958527E+01</rscale>
<asrwt>0</asrwt>
<pdfrwt beam="1">0</pdfrwt>
<pdfrwt beam="2">0</pdfrwt>
<totfact> 0.36384277E+11</totfact>
</mgrwt>
</event>
<event>
 4    1  0.3335341E+006  0.3276995E+01  0.7546771E-02  0.2441286E+00
         22   -1    0    0    0    0  0.00000000000E+00  0.00000000000E+00  0.31866939042E+01  0.31866939042E+01  0.00000000000E+00 0.  1.
         22   -1    0    0    0    0 -0.00000000000E+00 -0.00000000000E+00 -0.53224359007E+01  0.53224359007E+01  0.00000000000E+00 0. -1.
          2    1    1    2  501    0  0.18887840017E+01  0.26779069822E+01 -0.36448116659E+01  0.49013619936E+01  0.25500000000E-02 0. -1.
         -2    1    1    2    0  501 -0.18887840017E+01 -0.26779069822E+01  0.15090696694E+01  0.36077678112E+01  0.25500000000E-02 0.  1.
<mgrwt>
<rscale>  0 0.32769952E+01</rscale>
<asrwt>0</asrwt>
<pdfrwt beam="1">0</pdfrwt>
<pdfrwt beam="2">0</pdfrwt>
<totfact> 0.88561128E+11</totfact>
</mgrwt>
</event>
<event>
 4    1  0.3335341E+006  0.3184261E+01  0.7546771E-02  0.2466974E+00
         22   -1    0    0    0    0  0.00000000000E+00  0.00000000000E+00  0.80479858648E+00  0.80479858648E+00  0.00000000000E+00 0.  1.
         22   -1    0    0    0    0 -0.00000000000E+00 -0.00000000000E+00 -0.17121427794E+02  0.17121427794E+02  0.00000000000E+00 0. -1.
          2    1    1    2  501    0  0.19780432444E+01  0.24953673366E+01 -0.12764940298E+02  0.13156109628E+02  0.25500000000E-02 0. -1.
         -2    1    1    2    0  501 -0.19780432444E+01 -0.24953673366E+01 -0.35516889089E+01  0.47701167522E+01  0.25500000000E-02 0.  1.
<mgrwt>
<rscale>  0 0.31842613E+01</rscale>
<asrwt>0</asrwt>
<pdfrwt beam="1">0</pdfrwt>
<pdfrwt beam="2">0</pdfrwt>
<totfact> 0.10524809E+12</totfact>
</mgrwt>
</event>
<event>
 4    1  0.3335341E+006  0.2199475E+01  0.7546771E-02  0.2857947E+00
         22   -1    0    0    0    0  0.00000000000E+00  0.00000000000E+00  0.55596200556E+00  0.55596200556E+00  0.00000000000E+00 0.  1.
         22   -1    0    0    0    0 -0.00000000000E+00 -0.00000000000E+00 -0.12958841969E+02  0.12958841969E+02  0.00000000000E+00 0. -1.
          2    1    1    2  501    0 -0.80932969547E+00  0.20451570270E+01 -0.10074616665E+02  0.10311914918E+02  0.25500000000E-02 0. -1.
         -2    1    1    2    0  501  0.80932969547E+00 -0.20451570270E+01 -0.23282632983E+01  0.32028890567E+01  0.25500000000E-02 0.  1.
<mgrwt>
<rscale>  0 0.21994746E+01</rscale>
<asrwt>0</asrwt>
<pdfrwt beam="1">0</pdfrwt>
<pdfrwt beam="2">0</pdfrwt>
<totfact> 0.22554887E+12</totfact>
</mgrwt>
</event>
<event>
 4    1  0.3335341E+006  0.3551217E+01  0.7546771E-02  0.2372277E+00
         22   -1    0    0    0    0  0.00000000000E+00  0.00000000000E+00  0.67351369816E-01  0.67351369816E-01  0.00000000000E+00 0.  1.
         22   -1    0    0    0    0 -0.00000000000E+00 -0.00000000000E+00 -0.19096102359E+03  0.19096102359E+03  0.00000000000E+00 0. -1.
          2    1    1    2  501    0 -0.35476094821E+01 -0.16000831720E+00 -0.10877257109E+03  0.10883052588E+03  0.25500000000E-02 0. -1.
         -2    1    1    2    0  501  0.35476094821E+01  0.16000831720E+00 -0.82121101125E+02  0.82197849073E+02  0.25500000000E-02 0.  1.
<mgrwt>
<rscale>  0 0.35512170E+01</rscale>
<asrwt>0</asrwt>
<pdfrwt beam="1">0</pdfrwt>
<pdfrwt beam="2">0</pdfrwt>
<totfact> 0.64787744E+11</totfact>
</mgrwt>
</event>
<event>
 4    1  0.3335341E+006  0.2659699E+01  0.7546771E-02  0.2642053E+00
         22   -1    0    0    0    0  0.00000000000E+00  0.00000000000E+00  0.29163259453E+00  0.29163259453E+00  0.00000000000E+00 0.  1.
         22   -1    0    0    0    0 -0.00000000000E+00 -0.00000000000E+00 -0.25685061254E+02  0.25685061254E+02  0.00000000000E+00 0. -1.
          2    1    1    2  501    0 -0.87306082345E+00 -0.25123212743E+01 -0.15759776324E+02  0.15982632751E+02  0.25500000000E-02 0. -1.
         -2    1    1    2    0  501  0.87306082345E+00  0.25123212743E+01 -0.96336523361E+01  0.99940610976E+01  0.25500000000E-02 0.  1.
<mgrwt>
<rscale>  0 0.26596992E+01</rscale>
<asrwt>0</asrwt>
<pdfrwt beam="1">0</pdfrwt>
<pdfrwt beam="2">0</pdfrwt>
<totfact> 0.19938310E+12</totfact>
</mgrwt>
</event>
<event>
 4    1  0.3335341E+006  0.1204555E+02  0.7546771E-02  0.1705058E+00
         22   -1    0    0    0    0  0.00000000000E+00  0.00000000000E+00  0.75343325496E+01  0.75343325496E+01  0.00000000000E+00 0. -1.
         22   -1    0    0    0    0 -0.00000000000E+00 -0.00000000000E+00 -0.19263591429E+02  0.19263591429E+02  0.00000000000E+00 0.  1.
          2    1    1    2  501    0  0.11845076265E+02  0.21884976356E+01 -0.56341509741E+01  0.13298083220E+02  0.25500000000E-02 0. -1.
         -2    1    1    2    0  501 -0.11845076265E+02 -0.21884976356E+01 -0.60951079056E+01  0.13499840759E+02  0.25500000000E-02 0.  1.
<mgrwt>
<rscale>  0 0.12045554E+02</rscale>
<asrwt>0</asrwt>
<pdfrwt beam="1">0</pdfrwt>
<pdfrwt beam="2">0</pdfrwt>
<totfact> 0.67205990E+10</totfact>
</mgrwt>
</event>
<event>
 4    1  0.3335341E+006  0.2058002E+01  0.7546771E-02  0.2942644E+00
         22   -1    0    0    0    0  0.00000000000E+00  0.00000000000E+00  0.15952665637E+00  0.15952665637E+00  0.00000000000E+00 0. -1.
         22   -1    0    0    0    0 -0.00000000000E+00 -0.00000000000E+00 -0.27210088481E+02  0.27210088481E+02  0.00000000000E+00 0.  1.
          2    1    1    2  501    0  0.52205588385E+00 -0.19906837255E+01 -0.15657358415E+02  0.15792030999E+02  0.25500000000E-02 0.  1.
         -2    1    1    2    0  501 -0.52205588385E+00  0.19906837255E+01 -0.11393203410E+02  0.11577584138E+02  0.25500000000E-02 0. -1.
<mgrwt>
<rscale>  0 0.20580016E+01</rscale>
<asrwt>0</asrwt>
<pdfrwt beam="1">0</pdfrwt>
<pdfrwt beam="2">0</pdfrwt>
<totfact> 0.36350523E+12</totfact>
</mgrwt>
</event>
<event>
 4    1  0.3335341E+006  0.2399616E+01  0.7546771E-02  0.2754511E+00
         22   -1    0    0    0    0  0.00000000000E+00  0.00000000000E+00  0.15248121393E+01  0.15248121393E+01  0.00000000000E+00 0. -1.
         22   -1    0    0    0    0 -0.00000000000E+00 -0.00000000000E+00 -0.39953591041E+01  0.39953591041E+01  0.00000000000E+00 0.  1.
          2    1    1    2  501    0 -0.84578025649E+00  0.22456196458E+01 -0.18815503784E+01  0.30493261821E+01  0.25500000000E-02 0.  1.
         -2    1    1    2    0  501  0.84578025649E+00 -0.22456196458E+01 -0.58899658644E+00  0.24708450613E+01  0.25500000000E-02 0. -1.
<mgrwt>
<rscale>  0 0.23996163E+01</rscale>
<asrwt>0</asrwt>
<pdfrwt beam="1">0</pdfrwt>
<pdfrwt beam="2">0</pdfrwt>
<totfact> 0.29224137E+12</totfact>
</mgrwt>
</event>
<event>
 4    1  0.3335341E+006  0.2039852E+01  0.7546771E-02  0.2954334E+00
         22   -1    0    0    0    0  0.00000000000E+00  0.00000000000E+00  0.14139408403E+01  0.14139408403E+01  0.00000000000E+00 0. -1.
         22   -1    0    0    0    0 -0.00000000000E+00 -0.00000000000E+00 -0.38303604547E+01  0.38303604547E+01  0.00000000000E+00 0.  1.
          2    1    1    2  501    0 -0.17903220770E+01 -0.97761716697E+00 -0.24704097631E+01  0.32037352208E+01  0.25500000000E-02 0. -1.
         -2    1    1    2    0  501  0.17903220770E+01  0.97761716697E+00  0.53990148738E-01  0.20405660742E+01  0.25500000000E-02 0.  1.
<mgrwt>
<rscale>  0 0.20398517E+01</rscale>
<asrwt>0</asrwt>
<pdfrwt beam="1">0</pdfrwt>
<pdfrwt beam="2">0</pdfrwt>
<totfact> 0.33493420E+12</totfact>
</mgrwt>
</event>
<event>
 4    1  0.3335341E+006  0.1004767E+02  0.7546771E-02  0.1776779E+00
         22   -1    0    0    0    0  0.00000000000E+00  0.00000000000E+00  0.40108328019E+02  0.40108328019E+02  0.00000000000E+00 0. -1.
         22   -1    0    0    0    0 -0.00000000000E+00 -0.00000000000E+00 -0.30471876422E+01  0.30471876422E+01  0.00000000000E+00 0.  1.
          2    1    1    2  501    0 -0.59314532518E+01 -0.81100933911E+01  0.95306245804E+01  0.13848774815E+02  0.25500000000E-02 0.  1.
         -2    1    1    2    0  501  0.59314532518E+01  0.81100933911E+01  0.27530515796E+02  0.29306740846E+02  0.25500000000E-02 0. -1.
<mgrwt>
<rscale>  0 0.10047674E+02</rscale>
<asrwt>0</asrwt>
<pdfrwt beam="1">0</pdfrwt>
<pdfrwt beam="2">0</pdfrwt>
<totfact> 0.77288022E+10</totfact>
</mgrwt>
</event>
<event>
 4    1  0.3335341E+006  0.2006275E+01  0.7546771E-02  0.2976505E+00
         22   -1    0    0    0    0  0.00000000000E+00  0.00000000000E+00  0.87623075755E+01  0.87623075755E+01  0.00000000000E+00 0. -1.
         22   -1    0    0    0    0 -0.00000000000E+00 -0.00000000000E+00 -0.79518868259E+00  0.79518868259E+00  0.00000000000E+00 0.  1.
          2    1    1    2  501    0  0.13692928596E+01 -0.14663452789E+01  0.87805813278E+00  0.21900054793E+01  0.25500000000E-02 0.  1.
         -2    1    1    2    0  501 -0.13692928596E+01  0.14663452789E+01  0.70890607601E+01  0.73674907788E+01  0.25500000000E-02 0. -1.
<mgrwt>
<rscale>  0 0.20062746E+01</rscale>
<asrwt>0</asrwt>
<pdfrwt beam="1">0</pdfrwt>
<pdfrwt beam="2">0</pdfrwt>
<totfact> 0.24167353E+12</totfact>
</mgrwt>
</event>
<event>
 4    1  0.3335341E+006  0.2005184E+01  0.7546771E-02  0.2977238E+00
         22   -1    0    0    0    0  0.00000000000E+00  0.00000000000E+00  0.33898632051E+01  0.33898632051E+01  0.00000000000E+00 0. -1.
         22   -1    0    0    0    0 -0.00000000000E+00 -0.00000000000E+00 -0.39053468342E+01  0.39053468342E+01  0.00000000000E+00 0.  1.
          2    1    1    2  501    0 -0.19986977179E+01  0.16112812301E+00 -0.33014377555E+01  0.38626742803E+01  0.25500000000E-02 0.  1.
         -2    1    1    2    0  501  0.19986977179E+01 -0.16112812301E+00  0.27859541264E+01  0.34325357590E+01  0.25500000000E-02 0. -1.
<mgrwt>
<rscale>  0 0.20051836E+01</rscale>
<asrwt>0</asrwt>
<pdfrwt beam="1">0</pdfrwt>
<pdfrwt beam="2">0</pdfrwt>
<totfact> 0.11872586E+12</totfact>
</mgrwt>
</event>
<event>
 4    1  0.3335341E+006  0.3474771E+01  0.7546771E-02  0.2390555E+00
         22   -1    0    0    0    0  0.00000000000E+00  0.00000000000E+00  0.25725383907E+01  0.25725383907E+01  0.00000000000E+00 0.  1.
         22   -1    0    0    0    0 -0.00000000000E+00 -0.00000000000E+00 -0.65085360034E+01  0.65085360034E+01  0.00000000000E+00 0. -1.
          2    1    1    2  501    0  0.34699190679E+01  0.18355011486E+00 -0.43658171072E+01  0.55798202927E+01  0.25500000000E-02 0. -1.
         -2    1    1    2    0  501 -0.34699190679E+01 -0.18355011486E+00  0.42981949454E+00  0.35012541014E+01  0.25500000000E-02 0.  1.
<mgrwt>
<rscale>  0 0.34747713E+01</rscale>
<asrwt>0</asrwt>
<pdfrwt beam="1">0</pdfrwt>
<pdfrwt beam="2">0</pdfrwt>
<totfact> 0.89493477E+11</totfact>
</mgrwt>
</event>
<event>
 4    1  0.3335341E+006  0.2149283E+01  0.7546771E-02  0.2886763E+00
         22   -1    0    0    0    0  0.00000000000E+00  0.00000000000E+00  0.28139424300E+00  0.28139424300E+00  0.00000000000E+00 0. -1.
         22   -1    0    0    0    0 -0.00000000000E+00 -0.00000000000E+00 -0.43618592201E+02  0.43618592201E+02  0.00000000000E+00 0.  1.
          2    1    1    2  501    0  0.19370037707E+01  0.93135766750E+00 -0.39002739565E+02  0.39061913814E+02  0.25500000000E-02 0.  1.
         -2    1    1    2    0  501 -0.19370037707E+01 -0.93135766750E+00 -0.43344583929E+01  0.48380726302E+01  0.25500000000E-02 0. -1.
<mgrwt>
<rscale>  0 0.21492830E+01</rscale>
<asrwt>0</asrwt>
<pdfrwt beam="1">0</pdfrwt>
<pdfrwt beam="2">0</pdfrwt>
<totfact> 0.10516624E+12</totfact>
</mgrwt>
</event>
<event>
 4    1  0.3335341E+006  0.4256655E+01  0.7546771E-02  0.2230764E+00
         22   -1    0    0    0    0  0.00000000000E+00  0.00000000000E+00  0.41762566871E+02  0.41762566871E+02  0.00000000000E+00 0.  1.
         22   -1    0    0    0    0 -0.00000000000E+00 -0.00000000000E+00 -0.50397535311E+00  0.50397535311E+00  0.00000000000E+00 0. -1.
          2    1    1    2  501    0  0.40530078749E+01  0.13008586916E+01  0.12746718479E+02  0.13438673471E+02  0.25500000000E-02 0. -1.
         -2    1    1    2    0  501 -0.40530078749E+01 -0.13008586916E+01  0.28511873039E+02  0.28827868753E+02  0.25500000000E-02 0.  1.
<mgrwt>
<rscale>  0 0.42566551E+01</rscale>
<asrwt>0</asrwt>
<pdfrwt beam="1">0</pdfrwt>
<pdfrwt beam="2">0</pdfrwt>
<totfact> 0.57793248E+11</totfact>
</mgrwt>
</event>
<event>
 4    1  0.3335341E+006  0.2695522E+01  0.7546771E-02  0.2628140E+00
         22   -1    0    0    0    0  0.00000000000E+00  0.00000000000E+00  0.30629444008E+01  0.30629444008E+01  0.00000000000E+00 0.  1.
         22   -1    0    0    0    0 -0.00000000000E+00 -0.00000000000E+00 -0.53241267339E+01  0.53241267339E+01  0.00000000000E+00 0. -1.
          2    1    1    2  501    0  0.22982762273E+01 -0.14084602490E+01 -0.42531509240E+01  0.50353880859E+01  0.25500000000E-02 0. -1.
         -2    1    1    2    0  501 -0.22982762273E+01  0.14084602490E+01  0.19919685909E+01  0.33516830488E+01  0.25500000000E-02 0.  1.
<mgrwt>
<rscale>  0 0.26955223E+01</rscale>
<asrwt>0</asrwt>
<pdfrwt beam="1">0</pdfrwt>
<pdfrwt beam="2">0</pdfrwt>
<totfact> 0.92723077E+11</totfact>
</mgrwt>
</event>
<event>
 4    1  0.3335341E+006  0.2356058E+01  0.7546771E-02  0.2775605E+00
         22   -1    0    0    0    0  0.00000000000E+00  0.00000000000E+00  0.59575151938E+00  0.59575151938E+00  0.00000000000E+00 0. -1.
         22   -1    0    0    0    0 -0.00000000000E+00 -0.00000000000E+00 -0.96288747562E+01  0.96288747562E+01  0.00000000000E+00 0.  1.
          2    1    1    2  501    0  0.96867995728E-01 -0.23540640205E+01 -0.35974610755E+01  0.43003178386E+01  0.25500000000E-02 0. -1.
         -2    1    1    2    0  501 -0.96867995728E-01  0.23540640205E+01 -0.54356621613E+01  0.59243084369E+01  0.25500000000E-02 0.  1.
<mgrwt>
<rscale>  0 0.23560576E+01</rscale>
<asrwt>0</asrwt>
<pdfrwt beam="1">0</pdfrwt>
<pdfrwt beam="2">0</pdfrwt>
<totfact> 0.29931934E+12</totfact>
</mgrwt>
</event>
<event>
 4    1  0.3335341E+006  0.4414637E+01  0.7546771E-02  0.2204412E+00
         22   -1    0    0    0    0  0.00000000000E+00  0.00000000000E+00  0.34842049871E+01  0.34842049871E+01  0.00000000000E+00 0. -1.
         22   -1    0    0    0    0 -0.00000000000E+00 -0.00000000000E+00 -0.60348372794E+01  0.60348372794E+01  0.00000000000E+00 0.  1.
          2    1    1    2  501    0 -0.37825030887E+01 -0.22763320831E+01  0.11742614281E-01  0.44146530736E+01  0.25500000000E-02 0.  1.
         -2    1    1    2    0  501  0.37825030887E+01  0.22763320831E+01 -0.25623749066E+01  0.51043891929E+01  0.25500000000E-02 0. -1.
<mgrwt>
<rscale>  0 0.44146375E+01</rscale>
<asrwt>0</asrwt>
<pdfrwt beam="1">0</pdfrwt>
<pdfrwt beam="2">0</pdfrwt>
<totfact> 0.68709065E+11</totfact>
</mgrwt>
</event>
<event>
 4    1  0.3335341E+006  0.2227092E+01  0.7546771E-02  0.2842623E+00
         22   -1    0    0    0    0  0.00000000000E+00  0.00000000000E+00  0.67503334103E+00  0.67503334103E+00  0.00000000000E+00 0.  1.
         22   -1    0    0    0    0 -0.00000000000E+00 -0.00000000000E+00 -0.73545677611E+01  0.73545677611E+01  0.00000000000E+00 0. -1.
          2    1    1    2  501    0  0.75791697106E+00  0.20941576465E+01 -0.32170606933E+01  0.39127254427E+01  0.25500000000E-02 0.  1.
         -2    1    1    2    0  501 -0.75791697106E+00 -0.20941576465E+01 -0.34624737268E+01  0.41168756594E+01  0.25500000000E-02 0. -1.
<mgrwt>
<rscale>  0 0.22270925E+01</rscale>
<asrwt>0</asrwt>
<pdfrwt beam="1">0</pdfrwt>
<pdfrwt beam="2">0</pdfrwt>
<totfact> 0.35930920E+12</totfact>
</mgrwt>
</event>
<event>
 4    1  0.3335341E+006  0.2295405E+01  0.7546771E-02  0.2806233E+00
         22   -1    0    0    0    0  0.00000000000E+00  0.00000000000E+00  0.67929443475E+01  0.67929443475E+01  0.00000000000E+00 0.  1.
         22   -1    0    0    0    0 -0.00000000000E+00 -0.00000000000E+00 -0.81487738948E+00  0.81487738948E+00  0.00000000000E+00 0. -1.
          2    1    1    2  501    0 -0.21221595364E+01  0.87482262746E+00  0.21543306072E+01  0.31480188365E+01  0.25500000000E-02 0. -1.
         -2    1    1    2    0  501  0.21221595364E+01 -0.87482262746E+00  0.38237363509E+01  0.44598029005E+01  0.25500000000E-02 0.  1.
<mgrwt>
<rscale>  0 0.22954046E+01</rscale>
<asrwt>0</asrwt>
<pdfrwt beam="1">0</pdfrwt>
<pdfrwt beam="2">0</pdfrwt>
<totfact> 0.31904315E+12</totfact>
</mgrwt>
</event>
<event>
 4    1  0.3335341E+006  0.2133460E+01  0.7546771E-02  0.2896118E+00
         22   -1    0    0    0    0  0.00000000000E+00  0.00000000000E+00  0.10985791774E+00  0.10985791774E+00  0.00000000000E+00 0. -1.
         22   -1    0    0    0    0 -0.00000000000E+00 -0.00000000000E+00 -0.43977038361E+02  0.43977038361E+02  0.00000000000E+00 0.  1.
          2    1    1    2  501    0 -0.20979834467E+01  0.38743924768E+00 -0.27236332597E+02  0.27319763241E+02  0.25500000000E-02 0. -1.
         -2    1    1    2    0  501  0.20979834467E+01 -0.38743924768E+00 -0.16630847846E+02  0.16767133037E+02  0.25500000000E-02 0.  1.
<mgrwt>
<rscale>  0 0.21334597E+01</rscale>
<asrwt>0</asrwt>
<pdfrwt beam="1">0</pdfrwt>
<pdfrwt beam="2">0</pdfrwt>
<totfact> 0.29666856E+12</totfact>
</mgrwt>
</event>
<event>
 4    1  0.3335341E+006  0.2273192E+01  0.7546771E-02  0.2817837E+00
         22   -1    0    0    0    0  0.00000000000E+00  0.00000000000E+00  0.86565961715E+00  0.86565961715E+00  0.00000000000E+00 0. -1.
         22   -1    0    0    0    0 -0.00000000000E+00 -0.00000000000E+00 -0.60798038257E+01  0.60798038257E+01  0.00000000000E+00 0.  1.
          2    1    1    2  501    0  0.14349626767E+01 -0.17630305535E+01 -0.30752076261E+01  0.38241735136E+01  0.25500000000E-02 0.  1.
         -2    1    1    2    0  501 -0.14349626767E+01  0.17630305535E+01 -0.21389365824E+01  0.31212899292E+01  0.25500000000E-02 0. -1.
<mgrwt>
<rscale>  0 0.22731918E+01</rscale>
<asrwt>0</asrwt>
<pdfrwt beam="1">0</pdfrwt>
<pdfrwt beam="2">0</pdfrwt>
<totfact> 0.33995168E+12</totfact>
</mgrwt>
</event>
<event>
 4    1  0.3335341E+006  0.2232317E+01  0.7546771E-02  0.2839765E+00
         22   -1    0    0    0    0  0.00000000000E+00  0.00000000000E+00  0.88660901803E+00  0.88660901803E+00  0.00000000000E+00 0.  1.
         22   -1    0    0    0    0 -0.00000000000E+00 -0.00000000000E+00 -0.82212673956E+01  0.82212673956E+01  0.00000000000E+00 0. -1.
          2    1    1    2  501    0 -0.14356098334E+01  0.17094607423E+01 -0.62286477235E+01  0.66165920676E+01  0.25500000000E-02 0. -1.
         -2    1    1    2    0  501  0.14356098334E+01 -0.17094607423E+01 -0.11060106540E+01  0.24912843460E+01  0.25500000000E-02 0.  1.
<mgrwt>
<rscale>  0 0.22323168E+01</rscale>
<asrwt>0</asrwt>
<pdfrwt beam="1">0</pdfrwt>
<pdfrwt beam="2">0</pdfrwt>
<totfact> 0.23055258E+12</totfact>
</mgrwt>
</event>
<event>
 4    1  0.3335341E+006  0.2067556E+01  0.7546771E-02  0.2936570E+00
         22   -1    0    0    0    0  0.00000000000E+00  0.00000000000E+00  0.77198020282E+00  0.77198020282E+00  0.00000000000E+00 0. -1.
         22   -1    0    0    0    0 -0.00000000000E+00 -0.00000000000E+00 -0.15966052581E+02  0.15966052581E+02  0.00000000000E+00 0.  1.
          2    1    1    2  501    0  0.16825476076E+01  0.12015881858E+01 -0.14360810296E+02  0.14508882089E+02  0.25500000000E-02 0.  1.
         -2    1    1    2    0  501 -0.16825476076E+01 -0.12015881858E+01 -0.83326208251E+00  0.22291506949E+01  0.25500000000E-02 0. -1.
<mgrwt>
<rscale>  0 0.20675558E+01</rscale>
<asrwt>0</asrwt>
<pdfrwt beam="1">0</pdfrwt>
<pdfrwt beam="2">0</pdfrwt>
<totfact> 0.12029072E+12</totfact>
</mgrwt>
</event>
<event>
 4    1  0.3335341E+006  0.2866622E+01  0.7546771E-02  0.2566086E+00
         22   -1    0    0    0    0  0.00000000000E+00  0.00000000000E+00  0.60861029295E+01  0.60861029295E+01  0.00000000000E+00 0. -1.
         22   -1    0    0    0    0 -0.00000000000E+00 -0.00000000000E+00 -0.28669010891E+01  0.28669010891E+01  0.00000000000E+00 0.  1.
          2    1    1    2  501    0 -0.42077607102E+00  0.28355708132E+01 -0.16463729208E+01  0.33057623381E+01  0.25500000000E-02 0.  1.
         -2    1    1    2    0  501  0.42077607102E+00 -0.28355708132E+01  0.48655747612E+01  0.56472416805E+01  0.25500000000E-02 0. -1.
<mgrwt>
<rscale>  0 0.28666219E+01</rscale>
<asrwt>0</asrwt>
<pdfrwt beam="1">0</pdfrwt>
<pdfrwt beam="2">0</pdfrwt>
<totfact> 0.85447043E+11</totfact>
</mgrwt>
</event>
<event>
 4    1  0.3335341E+006  0.2126928E+01  0.7546771E-02  0.2900019E+00
         22   -1    0    0    0    0  0.00000000000E+00  0.00000000000E+00  0.20590719639E+00  0.20590719639E+00  0.00000000000E+00 0. -1.
         22   -1    0    0    0    0 -0.00000000000E+00 -0.00000000000E+00 -0.38311003183E+02  0.38311003183E+02  0.00000000000E+00 0.  1.
          2    1    1    2  501    0 -0.16931752699E+01  0.12872344233E+01 -0.31630109167E+02  0.31701539827E+02  0.25500000000E-02 0.  1.
         -2    1    1    2    0  501  0.16931752699E+01 -0.12872344233E+01 -0.64749868190E+01  0.68153705522E+01  0.25500000000E-02 0. -1.
<mgrwt>
<rscale>  0 0.21269277E+01</rscale>
<asrwt>0</asrwt>
<pdfrwt beam="1">0</pdfrwt>
<pdfrwt beam="2">0</pdfrwt>
<totfact> 0.17651380E+12</totfact>
</mgrwt>
</event>
<event>
 4    1  0.3335341E+006  0.2518342E+01  0.7546771E-02  0.2700499E+00
         22   -1    0    0    0    0  0.00000000000E+00  0.00000000000E+00  0.40988281669E+01  0.40988281669E+01  0.00000000000E+00 0. -1.
         22   -1    0    0    0    0 -0.00000000000E+00 -0.00000000000E+00 -0.25662303015E+01  0.25662303015E+01  0.00000000000E+00 0.  1.
          2    1    1    2  501    0 -0.62366567394E-01 -0.25175680012E+01 -0.13336181215E+01  0.28496634934E+01  0.25500000000E-02 0.  1.
         -2    1    1    2    0  501  0.62366567394E-01  0.25175680012E+01  0.28662159869E+01  0.38153949750E+01  0.25500000000E-02 0. -1.
<mgrwt>
<rscale>  0 0.25183417E+01</rscale>
<asrwt>0</asrwt>
<pdfrwt beam="1">0</pdfrwt>
<pdfrwt beam="2">0</pdfrwt>
<totfact> 0.15525346E+12</totfact>
</mgrwt>
</event>
<event>
 4    1  0.3335341E+006  0.2333503E+01  0.7546771E-02  0.2786818E+00
         22   -1    0    0    0    0  0.00000000000E+00  0.00000000000E+00  0.17857921580E+01  0.17857921580E+01  0.00000000000E+00 0. -1.
         22   -1    0    0    0    0 -0.00000000000E+00 -0.00000000000E+00 -0.30931428652E+01  0.30931428652E+01  0.00000000000E+00 0.  1.
          2    1    1    2  501    0  0.16652656461E+01 -0.16346616506E+01 -0.36290754508E+00  0.23615538894E+01  0.25500000000E-02 0. -1.
         -2    1    1    2    0  501 -0.16652656461E+01  0.16346616506E+01 -0.94444316212E+00  0.25173811338E+01  0.25500000000E-02 0.  1.
<mgrwt>
<rscale>  0 0.23335027E+01</rscale>
<asrwt>0</asrwt>
<pdfrwt beam="1">0</pdfrwt>
<pdfrwt beam="2">0</pdfrwt>
<totfact> 0.32885464E+12</totfact>
</mgrwt>
</event>
<event>
 4    1  0.3335341E+006  0.2521037E+01  0.7546771E-02  0.2699328E+00
         22   -1    0    0    0    0  0.00000000000E+00  0.00000000000E+00  0.56149174683E+00  0.56149174683E+00  0.00000000000E+00 0.  1.
         22   -1    0    0    0    0 -0.00000000000E+00 -0.00000000000E+00 -0.11487114257E+02  0.11487114257E+02  0.00000000000E+00 0. -1.
          2    1    1    2  501    0 -0.24634450658E+01  0.53577955564E+00 -0.61912065402E+01  0.66848086173E+01  0.25500000000E-02 0. -1.
         -2    1    1    2    0  501  0.24634450658E+01 -0.53577955564E+00 -0.47344159698E+01  0.53637973864E+01  0.25500000000E-02 0.  1.
<mgrwt>
<rscale>  0 0.25210371E+01</rscale>
<asrwt>0</asrwt>
<pdfrwt beam="1">0</pdfrwt>
<pdfrwt beam="2">0</pdfrwt>
<totfact> 0.25839161E+12</totfact>
</mgrwt>
</event>
<event>
 4    1  0.3335341E+006  0.2300679E+01  0.7546771E-02  0.2803509E+00
         22   -1    0    0    0    0  0.00000000000E+00  0.00000000000E+00  0.12668204759E+02  0.12668204759E+02  0.00000000000E+00 0.  1.
         22   -1    0    0    0    0 -0.00000000000E+00 -0.00000000000E+00 -0.42008239163E+00  0.42008239163E+00  0.00000000000E+00 0. -1.
          2    1    1    2  501    0 -0.19460460278E+01 -0.12272011880E+01  0.56446062029E+01  0.60954658220E+01  0.25500000000E-02 0. -1.
         -2    1    1    2    0  501  0.19460460278E+01  0.12272011880E+01  0.66035161645E+01  0.69928213287E+01  0.25500000000E-02 0.  1.
<mgrwt>
<rscale>  0 0.23006791E+01</rscale>
<asrwt>0</asrwt>
<pdfrwt beam="1">0</pdfrwt>
<pdfrwt beam="2">0</pdfrwt>
<totfact> 0.31817467E+12</totfact>
</mgrwt>
</event>
<event>
 4    1  0.3335341E+006  0.2095091E+01  0.7546771E-02  0.2919369E+00
         22   -1    0    0    0    0  0.00000000000E+00  0.00000000000E+00  0.16137962822E+02  0.16137962822E+02  0.00000000000E+00 0. -1.
         22   -1    0    0    0    0 -0.00000000000E+00 -0.00000000000E+00 -0.40426955186E+00  0.40426955186E+00  0.00000000000E+00 0.  1.
          2    1    1    2  501    0 -0.39190680970E+00 -0.20581080479E+01  0.31356530012E+01  0.37711703662E+01  0.25500000000E-02 0.  1.
         -2    1    1    2    0  501  0.39190680970E+00  0.20581080479E+01  0.12598040269E+02  0.12771062008E+02  0.25500000000E-02 0. -1.
<mgrwt>
<rscale>  0 0.20950910E+01</rscale>
<asrwt>0</asrwt>
<pdfrwt beam="1">0</pdfrwt>
<pdfrwt beam="2">0</pdfrwt>
<totfact> 0.24676861E+12</totfact>
</mgrwt>
</event>
<event>
 4    1  0.3335341E+006  0.2843742E+01  0.7546771E-02  0.2573991E+00
         22   -1    0    0    0    0  0.00000000000E+00  0.00000000000E+00  0.45704439001E+01  0.45704439001E+01  0.00000000000E+00 0.  1.
         22   -1    0    0    0    0 -0.00000000000E+00 -0.00000000000E+00 -0.40225738333E+01  0.40225738333E+01  0.00000000000E+00 0. -1.
          2    1    1    2  501    0  0.22182590744E+01 -0.17793781908E+01 -0.29416697840E+01  0.40914896661E+01  0.25500000000E-02 0. -1.
         -2    1    1    2    0  501 -0.22182590744E+01  0.17793781908E+01  0.34895398509E+01  0.45015280673E+01  0.25500000000E-02 0.  1.
<mgrwt>
<rscale>  0 0.28437416E+01</rscale>
<asrwt>0</asrwt>
<pdfrwt beam="1">0</pdfrwt>
<pdfrwt beam="2">0</pdfrwt>
<totfact> 0.80692203E+11</totfact>
</mgrwt>
</event>
<event>
 4    1  0.3335341E+006  0.2203449E+01  0.7546771E-02  0.2855720E+00
         22   -1    0    0    0    0  0.00000000000E+00  0.00000000000E+00  0.40885156817E+00  0.40885156817E+00  0.00000000000E+00 0.  1.
         22   -1    0    0    0    0 -0.00000000000E+00 -0.00000000000E+00 -0.12420452184E+02  0.12420452184E+02  0.00000000000E+00 0. -1.
          2    1    1    2  501    0  0.78015815613E+00 -0.20607115969E+01 -0.73498380923E+01  0.76730245353E+01  0.25500000000E-02 0. -1.
         -2    1    1    2    0  501 -0.78015815613E+00  0.20607115969E+01 -0.46617625240E+01  0.51562792173E+01  0.25500000000E-02 0.  1.
<mgrwt>
<rscale>  0 0.22034486E+01</rscale>
<asrwt>0</asrwt>
<pdfrwt beam="1">0</pdfrwt>
<pdfrwt beam="2">0</pdfrwt>
<totfact> 0.33603873E+12</totfact>
</mgrwt>
</event>
<event>
 4    1  0.3335341E+006  0.2075989E+01  0.7546771E-02  0.2931255E+00
         22   -1    0    0    0    0  0.00000000000E+00  0.00000000000E+00  0.44681701417E+00  0.44681701417E+00  0.00000000000E+00 0.  1.
         22   -1    0    0    0    0 -0.00000000000E+00 -0.00000000000E+00 -0.27028033147E+02  0.27028033147E+02  0.00000000000E+00 0. -1.
          2    1    1    2  501    0  0.18252245551E+01 -0.98907907049E+00 -0.24307419210E+02  0.24395908617E+02  0.25500000000E-02 0. -1.
         -2    1    1    2    0  501 -0.18252245551E+01  0.98907907049E+00 -0.22737969223E+01  0.30789415439E+01  0.25500000000E-02 0.  1.
<mgrwt>
<rscale>  0 0.20759886E+01</rscale>
<asrwt>0</asrwt>
<pdfrwt beam="1">0</pdfrwt>
<pdfrwt beam="2">0</pdfrwt>
<totfact> 0.11570957E+12</totfact>
</mgrwt>
</event>
<event>
 4    1  0.3335341E+006  0.2563491E+01  0.7546771E-02  0.2681184E+00
         22   -1    0    0    0    0  0.00000000000E+00  0.00000000000E+00  0.78744055633E+00  0.78744055633E+00  0.00000000000E+00 0.  1.
         22   -1    0    0    0    0 -0.00000000000E+00 -0.00000000000E+00 -0.18422726381E+02  0.18422726381E+02  0.00000000000E+00 0. -1.
          2    1    1    2  501    0  0.61988309825E+00 -0.24874131544E+01 -0.15921552409E+02  0.16126602769E+02  0.25500000000E-02 0. -1.
         -2    1    1    2    0  501 -0.61988309825E+00  0.24874131544E+01 -0.17137334154E+01  0.30835641679E+01  0.25500000000E-02 0.  1.
<mgrwt>
<rscale>  0 0.25634909E+01</rscale>
<asrwt>0</asrwt>
<pdfrwt beam="1">0</pdfrwt>
<pdfrwt beam="2">0</pdfrwt>
<totfact> 0.98520979E+11</totfact>
</mgrwt>
</event>
<event>
 4    1  0.3335341E+006  0.3234063E+01  0.7546771E-02  0.2453017E+00
         22   -1    0    0    0    0  0.00000000000E+00  0.00000000000E+00  0.11776275005E+02  0.11776275005E+02  0.00000000000E+00 0.  1.
         22   -1    0    0    0    0 -0.00000000000E+00 -0.00000000000E+00 -0.88925491219E+00  0.88925491219E+00  0.00000000000E+00 0. -1.
          2    1    1    2  501    0 -0.29127043036E+01 -0.14054564991E+01  0.56662016291E+01  0.65241859059E+01  0.25500000000E-02 0.  1.
         -2    1    1    2    0  501  0.29127043036E+01  0.14054564991E+01  0.52208184639E+01  0.61413440114E+01  0.25500000000E-02 0. -1.
<mgrwt>
<rscale>  0 0.32340626E+01</rscale>
<asrwt>0</asrwt>
<pdfrwt beam="1">0</pdfrwt>
<pdfrwt beam="2">0</pdfrwt>
<totfact> 0.14874190E+12</totfact>
</mgrwt>
</event>
<event>
 4    1  0.3335341E+006  0.2105384E+01  0.7546771E-02  0.2913051E+00
         22   -1    0    0    0    0  0.00000000000E+00  0.00000000000E+00  0.18803787038E+01  0.18803787038E+01  0.00000000000E+00 0.  1.
         22   -1    0    0    0    0 -0.00000000000E+00 -0.00000000000E+00 -0.46053082198E+01  0.46053082198E+01  0.00000000000E+00 0. -1.
          2    1    1    2  501    0 -0.20538740588E+01 -0.46285769672E+00 -0.36281222804E+01  0.41947483454E+01  0.25500000000E-02 0. -1.
         -2    1    1    2    0  501  0.20538740588E+01  0.46285769672E+00  0.90319276447E+00  0.22909385782E+01  0.25500000000E-02 0.  1.
<mgrwt>
<rscale>  0 0.21053841E+01</rscale>
<asrwt>0</asrwt>
<pdfrwt beam="1">0</pdfrwt>
<pdfrwt beam="2">0</pdfrwt>
<totfact> 0.19407801E+12</totfact>
</mgrwt>
</event>
<event>
 4    1  0.3335341E+006  0.2106506E+01  0.7546771E-02  0.2912366E+00
         22   -1    0    0    0    0  0.00000000000E+00  0.00000000000E+00  0.32735443123E+00  0.32735443123E+00  0.00000000000E+00 0.  1.
         22   -1    0    0    0    0 -0.00000000000E+00 -0.00000000000E+00 -0.13593374139E+02  0.13593374139E+02  0.00000000000E+00 0. -1.
          2    1    1    2  501    0  0.18832688034E+01 -0.94374699698E+00 -0.70016928373E+01  0.73117076577E+01  0.25500000000E-02 0. -1.
         -2    1    1    2    0  501 -0.18832688034E+01  0.94374699698E+00 -0.62643268701E+01  0.66090209122E+01  0.25500000000E-02 0.  1.
<mgrwt>
<rscale>  0 0.21065057E+01</rscale>
<asrwt>0</asrwt>
<pdfrwt beam="1">0</pdfrwt>
<pdfrwt beam="2">0</pdfrwt>
<totfact> 0.38635138E+12</totfact>
</mgrwt>
</event>
<event>
 4    1  0.3335341E+006  0.2251819E+01  0.7546771E-02  0.2829208E+00
         22   -1    0    0    0    0  0.00000000000E+00  0.00000000000E+00  0.21258890125E+01  0.21258890125E+01  0.00000000000E+00 0. -1.
         22   -1    0    0    0    0 -0.00000000000E+00 -0.00000000000E+00 -0.46691181815E+01  0.46691181815E+01  0.00000000000E+00 0.  1.
          2    1    1    2  501    0 -0.46743065150E+00 -0.22027685253E+01 -0.36478092660E+01  0.42868636010E+01  0.25500000000E-02 0.  1.
         -2    1    1    2    0  501  0.46743065150E+00  0.22027685253E+01  0.11045800970E+01  0.25081435930E+01  0.25500000000E-02 0. -1.
<mgrwt>
<rscale>  0 0.22518186E+01</rscale>
<asrwt>0</asrwt>
<pdfrwt beam="1">0</pdfrwt>
<pdfrwt beam="2">0</pdfrwt>
<totfact> 0.16566965E+12</totfact>
</mgrwt>
</event>
<event>
 4    1  0.3335341E+006  0.3290535E+01  0.7546771E-02  0.2437642E+00
         22   -1    0    0    0    0  0.00000000000E+00  0.00000000000E+00  0.67585509819E+00  0.67585509819E+00  0.00000000000E+00 0.  1.
         22   -1    0    0    0    0 -0.00000000000E+00 -0.00000000000E+00 -0.22566838840E+02  0.22566838840E+02  0.00000000000E+00 0. -1.
          2    1    1    2  501    0  0.26968995609E+01 -0.18852976269E+01 -0.17204654095E+02  0.17516499177E+02  0.25500000000E-02 0. -1.
         -2    1    1    2    0  501 -0.26968995609E+01  0.18852976269E+01 -0.46863296471E+01  0.57261947616E+01  0.25500000000E-02 0.  1.
<mgrwt>
<rscale>  0 0.32905350E+01</rscale>
<asrwt>0</asrwt>
<pdfrwt beam="1">0</pdfrwt>
<pdfrwt beam="2">0</pdfrwt>
<totfact> 0.90977051E+11</totfact>
</mgrwt>
</event>
<event>
 4    1  0.3335341E+006  0.2244224E+01  0.7546771E-02  0.2833299E+00
         22   -1    0    0    0    0  0.00000000000E+00  0.00000000000E+00  0.28554494876E+01  0.28554494876E+01  0.00000000000E+00 0. -1.
         22   -1    0    0    0    0 -0.00000000000E+00 -0.00000000000E+00 -0.20369743499E+01  0.20369743499E+01  0.00000000000E+00 0.  1.
          2    1    1    2  501    0 -0.16708253811E+01 -0.14982913815E+01 -0.48652649547E+00  0.22963556021E+01  0.25500000000E-02 0.  1.
         -2    1    1    2    0  501  0.16708253811E+01  0.14982913815E+01  0.13050016332E+01  0.25960682354E+01  0.25500000000E-02 0. -1.
<mgrwt>
<rscale>  0 0.22442239E+01</rscale>
<asrwt>0</asrwt>
<pdfrwt beam="1">0</pdfrwt>
<pdfrwt beam="2">0</pdfrwt>
<totfact> 0.31007572E+12</totfact>
</mgrwt>
</event>
<event>
 4    1  0.3335341E+006  0.2169836E+01  0.7546771E-02  0.2874808E+00
         22   -1    0    0    0    0  0.00000000000E+00  0.00000000000E+00  0.49323972629E+00  0.49323972629E+00  0.00000000000E+00 0.  1.
         22   -1    0    0    0    0 -0.00000000000E+00 -0.00000000000E+00 -0.96475580395E+01  0.96475580395E+01  0.00000000000E+00 0. -1.
          2    1    1    2  501    0 -0.13008748603E+01  0.17366363391E+01 -0.50988288233E+01  0.55413214171E+01  0.25500000000E-02 0. -1.
         -2    1    1    2    0  501  0.13008748603E+01 -0.17366363391E+01 -0.40554894899E+01  0.45994763486E+01  0.25500000000E-02 0.  1.
<mgrwt>
<rscale>  0 0.21698359E+01</rscale>
<asrwt>0</asrwt>
<pdfrwt beam="1">0</pdfrwt>
<pdfrwt beam="2">0</pdfrwt>
<totfact> 0.36967599E+12</totfact>
</mgrwt>
</event>
<event>
 4    1  0.3335341E+006  0.2895284E+01  0.7546771E-02  0.2556344E+00
         22   -1    0    0    0    0  0.00000000000E+00  0.00000000000E+00  0.53423930272E+00  0.53423930272E+00  0.00000000000E+00 0. -1.
         22   -1    0    0    0    0 -0.00000000000E+00 -0.00000000000E+00 -0.15736038876E+02  0.15736038876E+02  0.00000000000E+00 0.  1.
          2    1    1    2  501    0 -0.21336197065E+01  0.19571229336E+01 -0.80368373857E+01  0.85424484134E+01  0.25500000000E-02 0. -1.
         -2    1    1    2    0  501  0.21336197065E+01 -0.19571229336E+01 -0.71649621876E+01  0.77278297653E+01  0.25500000000E-02 0.  1.
<mgrwt>
<rscale>  0 0.28952841E+01</rscale>
<asrwt>0</asrwt>
<pdfrwt beam="1">0</pdfrwt>
<pdfrwt beam="2">0</pdfrwt>
<totfact> 0.18589906E+12</totfact>
</mgrwt>
</event>
<event>
 4    1  0.3335341E+006  0.2758561E+01  0.7546771E-02  0.2604463E+00
         22   -1    0    0    0    0  0.00000000000E+00  0.00000000000E+00  0.28193483305E+02  0.28193483305E+02  0.00000000000E+00 0.  1.
         22   -1    0    0    0    0 -0.00000000000E+00 -0.00000000000E+00 -0.27666313125E+00  0.27666313125E+00  0.00000000000E+00 0. -1.
          2    1    1    2  501    0 -0.83240435031E+00 -0.26299719686E+01  0.16182694276E+02  0.16416127743E+02  0.25500000000E-02 0.  1.
         -2    1    1    2    0  501  0.83240435031E+00  0.26299719686E+01  0.11734125898E+02  0.12054018693E+02  0.25500000000E-02 0. -1.
<mgrwt>
<rscale>  0 0.27585605E+01</rscale>
<asrwt>0</asrwt>
<pdfrwt beam="1">0</pdfrwt>
<pdfrwt beam="2">0</pdfrwt>
<totfact> 0.18796592E+12</totfact>
</mgrwt>
</event>
<event>
 4    1  0.3335341E+006  0.2149927E+01  0.7546771E-02  0.2886385E+00
         22   -1    0    0    0    0  0.00000000000E+00  0.00000000000E+00  0.24505897092E+01  0.24505897092E+01  0.00000000000E+00 0. -1.
         22   -1    0    0    0    0 -0.00000000000E+00 -0.00000000000E+00 -0.21048282109E+01  0.21048282109E+01  0.00000000000E+00 0.  1.
          2    1    1    2  501    0 -0.12973018614E+01 -0.17144061762E+01 -0.56127747504E+00  0.22219855002E+01  0.25500000000E-02 0.  1.
         -2    1    1    2    0  501  0.12973018614E+01  0.17144061762E+01  0.90703897342E+00  0.23334324199E+01  0.25500000000E-02 0. -1.
<mgrwt>
<rscale>  0 0.21499272E+01</rscale>
<asrwt>0</asrwt>
<pdfrwt beam="1">0</pdfrwt>
<pdfrwt beam="2">0</pdfrwt>
<totfact> 0.35671156E+12</totfact>
</mgrwt>
</event>
<event>
 4    1  0.3335341E+006  0.2214999E+01  0.7546771E-02  0.2849289E+00
         22   -1    0    0    0    0  0.00000000000E+00  0.00000000000E+00  0.13575590397E+01  0.13575590397E+01  0.00000000000E+00 0.  1.
         22   -1    0    0    0    0 -0.00000000000E+00 -0.00000000000E+00 -0.36262907712E+01  0.36262907712E+01  0.00000000000E+00 0. -1.
          2    1    1    2  501    0  0.86572575890E+00  0.20388063292E+01 -0.12794390271E+01  0.25579646332E+01  0.25500000000E-02 0.  1.
         -2    1    1    2    0  501 -0.86572575890E+00 -0.20388063292E+01 -0.98929270436E+00  0.24258851777E+01  0.25500000000E-02 0. -1.
<mgrwt>
<rscale>  0 0.22149986E+01</rscale>
<asrwt>0</asrwt>
<pdfrwt beam="1">0</pdfrwt>
<pdfrwt beam="2">0</pdfrwt>
<totfact> 0.37429129E+12</totfact>
</mgrwt>
</event>
<event>
 4    1  0.3335341E+006  0.2181106E+01  0.7546771E-02  0.2868345E+00
         22   -1    0    0    0    0  0.00000000000E+00  0.00000000000E+00  0.38463542339E+01  0.38463542339E+01  0.00000000000E+00 0.  1.
         22   -1    0    0    0    0 -0.00000000000E+00 -0.00000000000E+00 -0.13636300726E+01  0.13636300726E+01  0.00000000000E+00 0. -1.
          2    1    1    2  501    0  0.21571704598E+01  0.32222779664E+00  0.44694847867E+00  0.22264286629E+01  0.25500000000E-02 0. -1.
         -2    1    1    2    0  501 -0.21571704598E+01 -0.32222779664E+00  0.20357756826E+01  0.29835556436E+01  0.25500000000E-02 0.  1.
<mgrwt>
<rscale>  0 0.21811056E+01</rscale>
<asrwt>0</asrwt>
<pdfrwt beam="1">0</pdfrwt>
<pdfrwt beam="2">0</pdfrwt>
<totfact> 0.34747729E+12</totfact>
</mgrwt>
</event>
<event>
 4    1  0.3335341E+006  0.3634899E+01  0.7546771E-02  0.2353036E+00
         22   -1    0    0    0    0  0.00000000000E+00  0.00000000000E+00  0.93604831835E+00  0.93604831835E+00  0.00000000000E+00 0. -1.
         22   -1    0    0    0    0 -0.00000000000E+00 -0.00000000000E+00 -0.17678933781E+02  0.17678933781E+02  0.00000000000E+00 0.  1.
          2    1    1    2  501    0  0.34598883780E+01  0.11142953671E+01 -0.41925753913E+01  0.55488896787E+01  0.25500000000E-02 0. -1.
         -2    1    1    2    0  501 -0.34598883780E+01 -0.11142953671E+01 -0.12550310072E+02  0.13066092421E+02  0.25500000000E-02 0.  1.
<mgrwt>
<rscale>  0 0.36348987E+01</rscale>
<asrwt>0</asrwt>
<pdfrwt beam="1">0</pdfrwt>
<pdfrwt beam="2">0</pdfrwt>
<totfact> 0.85159915E+11</totfact>
</mgrwt>
</event>
<event>
 4    1  0.3335341E+006  0.2408028E+01  0.7546771E-02  0.2750520E+00
         22   -1    0    0    0    0  0.00000000000E+00  0.00000000000E+00  0.67856457486E+02  0.67856457486E+02  0.00000000000E+00 0. -1.
         22   -1    0    0    0    0 -0.00000000000E+00 -0.00000000000E+00 -0.11391943274E+00  0.11391943274E+00  0.00000000000E+00 0.  1.
          2    1    1    2  501    0  0.18337681704E+01  0.15607331696E+01  0.16882954710E+02  0.17053819513E+02  0.25500000000E-02 0.  1.
         -2    1    1    2    0  501 -0.18337681704E+01 -0.15607331696E+01  0.50859583343E+02  0.50916557406E+02  0.25500000000E-02 0. -1.
<mgrwt>
<rscale>  0 0.24080283E+01</rscale>
<asrwt>0</asrwt>
<pdfrwt beam="1">0</pdfrwt>
<pdfrwt beam="2">0</pdfrwt>
<totfact> 0.16016121E+12</totfact>
</mgrwt>
</event>
<event>
 4    1  0.3335341E+006  0.2105106E+01  0.7546771E-02  0.2913221E+00
         22   -1    0    0    0    0  0.00000000000E+00  0.00000000000E+00  0.23394406381E+00  0.23394406381E+00  0.00000000000E+00 0.  1.
         22   -1    0    0    0    0 -0.00000000000E+00 -0.00000000000E+00 -0.22620199330E+02  0.22620199330E+02  0.00000000000E+00 0. -1.
          2    1    1    2  501    0  0.20544217695E+01  0.45914634776E+00 -0.15800767969E+02  0.15940380770E+02  0.25500000000E-02 0. -1.
         -2    1    1    2    0  501 -0.20544217695E+01 -0.45914634776E+00 -0.65854872965E+01  0.69137626233E+01  0.25500000000E-02 0.  1.
<mgrwt>
<rscale>  0 0.21051059E+01</rscale>
<asrwt>0</asrwt>
<pdfrwt beam="1">0</pdfrwt>
<pdfrwt beam="2">0</pdfrwt>
<totfact> 0.29940870E+12</totfact>
</mgrwt>
</event>
<event>
 4    1  0.3335341E+006  0.2588981E+01  0.7546771E-02  0.2670555E+00
         22   -1    0    0    0    0  0.00000000000E+00  0.00000000000E+00  0.21643456005E+01  0.21643456005E+01  0.00000000000E+00 0. -1.
         22   -1    0    0    0    0 -0.00000000000E+00 -0.00000000000E+00 -0.31051690825E+01  0.31051690825E+01  0.00000000000E+00 0.  1.
          2    1    1    2  501    0 -0.24838697488E+01 -0.73020967774E+00 -0.33467390484E+00  0.26105225967E+01  0.25500000000E-02 0.  1.
         -2    1    1    2    0  501  0.24838697488E+01  0.73020967774E+00 -0.60614957717E+00  0.26589920863E+01  0.25500000000E-02 0. -1.
<mgrwt>
<rscale>  0 0.25889808E+01</rscale>
<asrwt>0</asrwt>
<pdfrwt beam="1">0</pdfrwt>
<pdfrwt beam="2">0</pdfrwt>
<totfact> 0.26208101E+12</totfact>
</mgrwt>
</event>
<event>
 4    1  0.3335341E+006  0.2526581E+01  0.7546771E-02  0.2696926E+00
         22   -1    0    0    0    0  0.00000000000E+00  0.00000000000E+00  0.17425901530E+02  0.17425901530E+02  0.00000000000E+00 0. -1.
         22   -1    0    0    0    0 -0.00000000000E+00 -0.00000000000E+00 -0.18433660929E+01  0.18433660929E+01  0.00000000000E+00 0.  1.
          2    1    1    2  501    0  0.15143847748E+01  0.20224347089E+01 -0.83305785950E+00  0.26603750295E+01  0.25500000000E-02 0.  1.
         -2    1    1    2    0  501 -0.15143847748E+01 -0.20224347089E+01  0.16415593297E+02  0.16608892593E+02  0.25500000000E-02 0. -1.
<mgrwt>
<rscale>  0 0.25265807E+01</rscale>
<asrwt>0</asrwt>
<pdfrwt beam="1">0</pdfrwt>
<pdfrwt beam="2">0</pdfrwt>
<totfact> 0.39826212E+11</totfact>
</mgrwt>
</event>
<event>
 4    1  0.3335341E+006  0.2029727E+01  0.7546771E-02  0.2960943E+00
         22   -1    0    0    0    0  0.00000000000E+00  0.00000000000E+00  0.33830137975E+02  0.33830137975E+02  0.00000000000E+00 0. -1.
         22   -1    0    0    0    0 -0.00000000000E+00 -0.00000000000E+00 -0.48499793461E+00  0.48499793461E+00  0.00000000000E+00 0.  1.
          2    1    1    2  501    0  0.17666126701E+01  0.99943266382E+00  0.18244946742E+01  0.27292074481E+01  0.25500000000E-02 0.  1.
         -2    1    1    2    0  501 -0.17666126701E+01 -0.99943266382E+00  0.31520645366E+02  0.31585928462E+02  0.25500000000E-02 0. -1.
<mgrwt>
<rscale>  0 0.20297272E+01</rscale>
<asrwt>0</asrwt>
<pdfrwt beam="1">0</pdfrwt>
<pdfrwt beam="2">0</pdfrwt>
<totfact> 0.79228473E+11</totfact>
</mgrwt>
</event>
<event>
 4    1  0.3335341E+006  0.4395045E+01  0.7546771E-02  0.2207594E+00
         22   -1    0    0    0    0  0.00000000000E+00  0.00000000000E+00  0.28364848103E+02  0.28364848103E+02  0.00000000000E+00 0. -1.
         22   -1    0    0    0    0 -0.00000000000E+00 -0.00000000000E+00 -0.75713412383E+00  0.75713412383E+00  0.00000000000E+00 0.  1.
          2    1    1    2  501    0 -0.13292652949E+01 -0.41892080394E+01  0.18421269891E+02  0.18938310408E+02  0.25500000000E-02 0. -1.
         -2    1    1    2    0  501  0.13292652949E+01  0.41892080394E+01  0.91864440889E+01  0.10183671819E+02  0.25500000000E-02 0.  1.
<mgrwt>
<rscale>  0 0.43950446E+01</rscale>
<asrwt>0</asrwt>
<pdfrwt beam="1">0</pdfrwt>
<pdfrwt beam="2">0</pdfrwt>
<totfact> 0.59920732E+11</totfact>
</mgrwt>
</event>
<event>
 4    1  0.3335341E+006  0.2289302E+01  0.7546771E-02  0.2809400E+00
         22   -1    0    0    0    0  0.00000000000E+00  0.00000000000E+00  0.10248310593E+02  0.10248310593E+02  0.00000000000E+00 0.  1.
         22   -1    0    0    0    0 -0.00000000000E+00 -0.00000000000E+00 -0.51904554051E+00  0.51904554051E+00  0.00000000000E+00 0. -1.
          2    1    1    2  501    0 -0.89460966934E+00 -0.21072656421E+01  0.42108779463E+01  0.47929525898E+01  0.25500000000E-02 0. -1.
         -2    1    1    2    0  501  0.89460966934E+00  0.21072656421E+01  0.55183871057E+01  0.59744035432E+01  0.25500000000E-02 0.  1.
<mgrwt>
<rscale>  0 0.22893015E+01</rscale>
<asrwt>0</asrwt>
<pdfrwt beam="1">0</pdfrwt>
<pdfrwt beam="2">0</pdfrwt>
<totfact> 0.32438105E+12</totfact>
</mgrwt>
</event>
<event>
 4    1  0.3335341E+006  0.2256533E+01  0.7546771E-02  0.2826682E+00
         22   -1    0    0    0    0  0.00000000000E+00  0.00000000000E+00  0.14923514534E+01  0.14923514534E+01  0.00000000000E+00 0. -1.
         22   -1    0    0    0    0 -0.00000000000E+00 -0.00000000000E+00 -0.49191971037E+01  0.49191971037E+01  0.00000000000E+00 0.  1.
          2    1    1    2  501    0 -0.39760884034E+00 -0.22212249721E+01 -0.34878873795E+01  0.41541904195E+01  0.25500000000E-02 0.  1.
         -2    1    1    2    0  501  0.39760884034E+00  0.22212249721E+01  0.61041729268E-01  0.22573581377E+01  0.25500000000E-02 0. -1.
<mgrwt>
<rscale>  0 0.22565327E+01</rscale>
<asrwt>0</asrwt>
<pdfrwt beam="1">0</pdfrwt>
<pdfrwt beam="2">0</pdfrwt>
<totfact> 0.23436061E+12</totfact>
</mgrwt>
</event>
