<event>
 4    2  0.2130683E+006  0.2143737E+01  0.7546771E-02  0.2890027E+00
         22   -1    0    0    0    0  0.00000000000E+00  0.00000000000E+00  0.39157180159E+01  0.39157180159E+01  0.00000000000E+00 0. -1.
         22   -1    0    0    0    0 -0.00000000000E+00 -0.00000000000E+00 -0.35284439413E+01  0.35284439413E+01  0.00000000000E+00 0.  1.
          4    1    1    2  501    0 -0.30908593269E+00  0.21213376771E+01 -0.28470549022E+01  0.35638924325E+01  0.00000000000E+00 0.  1.
         -4    1    1    2    0  501  0.30908593269E+00 -0.21213376771E+01  0.32343289768E+01  0.38802695247E+01  0.00000000000E+00 0. -1.
<mgrwt>
<rscale>  0 0.21437368E+01</rscale>
<asrwt>0</asrwt>
<pdfrwt beam="1">0</pdfrwt>
<pdfrwt beam="2">0</pdfrwt>
<totfact> 0.11293039E+12</totfact>
</mgrwt>
</event>
<event>
 4    2  0.2130683E+006  0.3249263E+01  0.7546771E-02  0.2448832E+00
         22   -1    0    0    0    0  0.00000000000E+00  0.00000000000E+00  0.14886349992E+01  0.14886349992E+01  0.00000000000E+00 0. -1.
         22   -1    0    0    0    0 -0.00000000000E+00 -0.00000000000E+00 -0.61741902356E+02  0.61741902356E+02  0.00000000000E+00 0.  1.
          4    1    1    2  501    0 -0.32487290565E+01 -0.58905382759E-01 -0.59870727269E+02  0.59958833328E+02  0.00000000000E+00 0.  1.
         -4    1    1    2    0  501  0.32487290565E+01  0.58905382759E-01 -0.38254008831E+00  0.32717040278E+01  0.00000000000E+00 0. -1.
<mgrwt>
<rscale>  0 0.32492630E+01</rscale>
<asrwt>0</asrwt>
<pdfrwt beam="1">0</pdfrwt>
<pdfrwt beam="2">0</pdfrwt>
<totfact> 0.10038264E+11</totfact>
</mgrwt>
</event>
<event>
 4    2  0.2130683E+006  0.2532450E+01  0.7546771E-02  0.2694394E+00
         22   -1    0    0    0    0  0.00000000000E+00  0.00000000000E+00  0.76970002351E+00  0.76970002351E+00  0.00000000000E+00 0.  1.
         22   -1    0    0    0    0 -0.00000000000E+00 -0.00000000000E+00 -0.84182001697E+01  0.84182001697E+01  0.00000000000E+00 0. -1.
          4    1    1    2  501    0  0.15471008352E+01 -0.20049396001E+01 -0.42885471282E+01  0.49804558291E+01  0.00000000000E+00 0.  1.
         -4    1    1    2    0  501 -0.15471008352E+01  0.20049396001E+01 -0.33599530179E+01  0.42074443641E+01  0.00000000000E+00 0. -1.
<mgrwt>
<rscale>  0 0.25324502E+01</rscale>
<asrwt>0</asrwt>
<pdfrwt beam="1">0</pdfrwt>
<pdfrwt beam="2">0</pdfrwt>
<totfact> 0.26321854E+12</totfact>
</mgrwt>
</event>
<event>
 4    2  0.2130683E+006  0.6886350E+01  0.7546771E-02  0.1948268E+00
         22   -1    0    0    0    0  0.00000000000E+00  0.00000000000E+00  0.14664839462E+01  0.14664839462E+01  0.00000000000E+00 0. -1.
         22   -1    0    0    0    0 -0.00000000000E+00 -0.00000000000E+00 -0.51726611720E+02  0.51726611720E+02  0.00000000000E+00 0.  1.
          4    1    1    2  501    0  0.42714107166E+01  0.54015615276E+01 -0.41413717489E+02  0.41982351205E+02  0.00000000000E+00 0.  1.
         -4    1    1    2    0  501 -0.42714107166E+01 -0.54015615276E+01 -0.88464102852E+01  0.11210744461E+02  0.00000000000E+00 0. -1.
<mgrwt>
<rscale>  0 0.68863500E+01</rscale>
<asrwt>0</asrwt>
<pdfrwt beam="1">0</pdfrwt>
<pdfrwt beam="2">0</pdfrwt>
<totfact> 0.12927772E+11</totfact>
</mgrwt>
</event>
<event>
 4    2  0.2130683E+006  0.2121207E+01  0.7546771E-02  0.2903455E+00
         22   -1    0    0    0    0  0.00000000000E+00  0.00000000000E+00  0.21084657326E+01  0.21084657326E+01  0.00000000000E+00 0. -1.
         22   -1    0    0    0    0 -0.00000000000E+00 -0.00000000000E+00 -0.24022095940E+01  0.24022095940E+01  0.00000000000E+00 0.  1.
          4    1    1    2  501    0  0.20368688154E+00  0.21114044366E+01  0.60669812015E+00  0.22062637308E+01  0.00000000000E+00 0. -1.
         -4    1    1    2    0  501 -0.20368688154E+00 -0.21114044366E+01 -0.90044198164E+00  0.23044115958E+01  0.00000000000E+00 0.  1.
<mgrwt>
<rscale>  0 0.21212065E+01</rscale>
<asrwt>0</asrwt>
<pdfrwt beam="1">0</pdfrwt>
<pdfrwt beam="2">0</pdfrwt>
<totfact> 0.36434369E+12</totfact>
</mgrwt>
</event>
<event>
 4    2  0.2130683E+006  0.3874326E+01  0.7546771E-02  0.2301981E+00
         22   -1    0    0    0    0  0.00000000000E+00  0.00000000000E+00  0.43209595752E+00  0.43209595752E+00  0.00000000000E+00 0. -1.
         22   -1    0    0    0    0 -0.00000000000E+00 -0.00000000000E+00 -0.40061094745E+02  0.40061094745E+02  0.00000000000E+00 0.  1.
          4    1    1    2  501    0 -0.38526832995E+01  0.40893776811E+00 -0.12434621869E+02  0.13024216665E+02  0.00000000000E+00 0. -1.
         -4    1    1    2    0  501  0.38526832995E+01 -0.40893776811E+00 -0.27194376918E+02  0.27468974037E+02  0.00000000000E+00 0.  1.
<mgrwt>
<rscale>  0 0.38743256E+01</rscale>
<asrwt>0</asrwt>
<pdfrwt beam="1">0</pdfrwt>
<pdfrwt beam="2">0</pdfrwt>
<totfact> 0.72568282E+11</totfact>
</mgrwt>
</event>
<event>
 4    2  0.2130683E+006  0.2659588E+01  0.7546771E-02  0.2642097E+00
         22   -1    0    0    0    0  0.00000000000E+00  0.00000000000E+00  0.11573370166E+02  0.11573370166E+02  0.00000000000E+00 0. -1.
         22   -1    0    0    0    0 -0.00000000000E+00 -0.00000000000E+00 -0.96013944436E+00  0.96013944436E+00  0.00000000000E+00 0.  1.
          4    1    1    2  501    0  0.18432099379E+01 -0.19172862418E+01  0.15286046495E+01  0.30675791078E+01  0.00000000000E+00 0. -1.
         -4    1    1    2    0  501 -0.18432099379E+01  0.19172862418E+01  0.90846260717E+01  0.94659305021E+01  0.00000000000E+00 0.  1.
<mgrwt>
<rscale>  0 0.26595882E+01</rscale>
<asrwt>0</asrwt>
<pdfrwt beam="1">0</pdfrwt>
<pdfrwt beam="2">0</pdfrwt>
<totfact> 0.13919913E+12</totfact>
</mgrwt>
</event>
<event>
 4    2  0.2130683E+006  0.3325694E+01  0.7546771E-02  0.2428303E+00
         22   -1    0    0    0    0  0.00000000000E+00  0.00000000000E+00  0.12634988164E+01  0.12634988164E+01  0.00000000000E+00 0.  1.
         22   -1    0    0    0    0 -0.00000000000E+00 -0.00000000000E+00 -0.10789799221E+02  0.10789799221E+02  0.00000000000E+00 0. -1.
          4    1    1    2  501    0 -0.27862740437E+01 -0.18157419659E+01 -0.73811686921E+01  0.80957947846E+01  0.00000000000E+00 0. -1.
         -4    1    1    2    0  501  0.27862740437E+01  0.18157419659E+01 -0.21451317130E+01  0.39575032532E+01  0.00000000000E+00 0.  1.
<mgrwt>
<rscale>  0 0.33256942E+01</rscale>
<asrwt>0</asrwt>
<pdfrwt beam="1">0</pdfrwt>
<pdfrwt beam="2">0</pdfrwt>
<totfact> 0.11072861E+12</totfact>
</mgrwt>
</event>
<event>
 4    2  0.2130683E+006  0.2294840E+01  0.7546771E-02  0.2806525E+00
         22   -1    0    0    0    0  0.00000000000E+00  0.00000000000E+00  0.21308521971E+01  0.21308521971E+01  0.00000000000E+00 0. -1.
         22   -1    0    0    0    0 -0.00000000000E+00 -0.00000000000E+00 -0.91143979594E+01  0.91143979594E+01  0.00000000000E+00 0.  1.
          4    1    1    2  501    0 -0.10189005267E+00 -0.22925773596E+01 -0.82919315097E+01  0.86036283447E+01  0.00000000000E+00 0.  1.
         -4    1    1    2    0  501  0.10189005267E+00  0.22925773596E+01  0.13083857473E+01  0.26416218118E+01  0.00000000000E+00 0. -1.
<mgrwt>
<rscale>  0 0.22948404E+01</rscale>
<asrwt>0</asrwt>
<pdfrwt beam="1">0</pdfrwt>
<pdfrwt beam="2">0</pdfrwt>
<totfact> 0.74352929E+11</totfact>
</mgrwt>
</event>
<event>
 4    2  0.2130683E+006  0.2461048E+01  0.7546771E-02  0.2725956E+00
         22   -1    0    0    0    0  0.00000000000E+00  0.00000000000E+00  0.85094506783E+01  0.85094506783E+01  0.00000000000E+00 0.  1.
         22   -1    0    0    0    0 -0.00000000000E+00 -0.00000000000E+00 -0.10701709426E+01  0.10701709426E+01  0.00000000000E+00 0. -1.
          4    1    1    2  501    0  0.24208315731E+01  0.44309162255E+00  0.94774027593E+00  0.26372272034E+01  0.00000000000E+00 0. -1.
         -4    1    1    2    0  501 -0.24208315731E+01 -0.44309162255E+00  0.64915394597E+01  0.69423944175E+01  0.00000000000E+00 0.  1.
<mgrwt>
<rscale>  0 0.24610477E+01</rscale>
<asrwt>0</asrwt>
<pdfrwt beam="1">0</pdfrwt>
<pdfrwt beam="2">0</pdfrwt>
<totfact> 0.17844306E+12</totfact>
</mgrwt>
</event>
<event>
 4    2  0.2130683E+006  0.3548293E+01  0.7546771E-02  0.2372963E+00
         22   -1    0    0    0    0  0.00000000000E+00  0.00000000000E+00  0.35616480549E+01  0.35616480549E+01  0.00000000000E+00 0. -1.
         22   -1    0    0    0    0 -0.00000000000E+00 -0.00000000000E+00 -0.11020712411E+02  0.11020712411E+02  0.00000000000E+00 0.  1.
          4    1    1    2  501    0 -0.16205169868E+01  0.31566293411E+01 -0.97386387789E+01  0.10364915309E+02  0.00000000000E+00 0. -1.
         -4    1    1    2    0  501  0.16205169868E+01 -0.31566293411E+01  0.22795744227E+01  0.42174451567E+01  0.00000000000E+00 0.  1.
<mgrwt>
<rscale>  0 0.35482931E+01</rscale>
<asrwt>0</asrwt>
<pdfrwt beam="1">0</pdfrwt>
<pdfrwt beam="2">0</pdfrwt>
<totfact> 0.32457998E+11</totfact>
</mgrwt>
</event>
<event>
 4    2  0.2130683E+006  0.2094953E+01  0.7546771E-02  0.2919454E+00
         22   -1    0    0    0    0  0.00000000000E+00  0.00000000000E+00  0.59845260091E+00  0.59845260091E+00  0.00000000000E+00 0. -1.
         22   -1    0    0    0    0 -0.00000000000E+00 -0.00000000000E+00 -0.95254823463E+01  0.95254823463E+01  0.00000000000E+00 0.  1.
          4    1    1    2  501    0  0.57792328401E+00 -0.20136614601E+01 -0.68917003937E+01  0.72030800436E+01  0.00000000000E+00 0. -1.
         -4    1    1    2    0  501 -0.57792328401E+00  0.20136614601E+01 -0.20353293517E+01  0.29208549037E+01  0.00000000000E+00 0.  1.
<mgrwt>
<rscale>  0 0.20949529E+01</rscale>
<asrwt>0</asrwt>
<pdfrwt beam="1">0</pdfrwt>
<pdfrwt beam="2">0</pdfrwt>
<totfact> 0.30168690E+12</totfact>
</mgrwt>
</event>
<event>
 4    2  0.2130683E+006  0.2303079E+01  0.7546771E-02  0.2802273E+00
         22   -1    0    0    0    0  0.00000000000E+00  0.00000000000E+00  0.85981287309E+00  0.85981287309E+00  0.00000000000E+00 0.  1.
         22   -1    0    0    0    0 -0.00000000000E+00 -0.00000000000E+00 -0.78767789089E+01  0.78767789089E+01  0.00000000000E+00 0. -1.
          4    1    1    2  501    0  0.19732667417E+01 -0.11875998170E+01 -0.55425025490E+01  0.60019588023E+01  0.00000000000E+00 0. -1.
         -4    1    1    2    0  501 -0.19732667417E+01  0.11875998170E+01 -0.14744634868E+01  0.27346329797E+01  0.00000000000E+00 0.  1.
<mgrwt>
<rscale>  0 0.23030795E+01</rscale>
<asrwt>0</asrwt>
<pdfrwt beam="1">0</pdfrwt>
<pdfrwt beam="2">0</pdfrwt>
<totfact> 0.25136146E+12</totfact>
</mgrwt>
</event>
<event>
 4    2  0.2130683E+006  0.2563989E+01  0.7546771E-02  0.2680974E+00
         22   -1    0    0    0    0  0.00000000000E+00  0.00000000000E+00  0.31923543935E+01  0.31923543935E+01  0.00000000000E+00 0. -1.
         22   -1    0    0    0    0 -0.00000000000E+00 -0.00000000000E+00 -0.67829333655E+01  0.67829333655E+01  0.00000000000E+00 0.  1.
          4    1    1    2  501    0 -0.17504808411E+01  0.18734611063E+01 -0.59575034580E+01  0.64858220099E+01  0.00000000000E+00 0.  1.
         -4    1    1    2    0  501  0.17504808411E+01 -0.18734611063E+01  0.23669244859E+01  0.34894657491E+01  0.00000000000E+00 0. -1.
<mgrwt>
<rscale>  0 0.25639890E+01</rscale>
<asrwt>0</asrwt>
<pdfrwt beam="1">0</pdfrwt>
<pdfrwt beam="2">0</pdfrwt>
<totfact> 0.66216614E+11</totfact>
</mgrwt>
</event>
<event>
 4    2  0.2130683E+006  0.3357369E+01  0.7546771E-02  0.2420037E+00
         22   -1    0    0    0    0  0.00000000000E+00  0.00000000000E+00  0.11993365490E+02  0.11993365490E+02  0.00000000000E+00 0.  1.
         22   -1    0    0    0    0 -0.00000000000E+00 -0.00000000000E+00 -0.10089304615E+01  0.10089304615E+01  0.00000000000E+00 0. -1.
          4    1    1    2  501    0 -0.28121104532E+01  0.18341105195E+01  0.37910503270E+01  0.50639894531E+01  0.00000000000E+00 0. -1.
         -4    1    1    2    0  501  0.28121104532E+01 -0.18341105195E+01  0.71933847014E+01  0.79383064983E+01  0.00000000000E+00 0.  1.
<mgrwt>
<rscale>  0 0.33573690E+01</rscale>
<asrwt>0</asrwt>
<pdfrwt beam="1">0</pdfrwt>
<pdfrwt beam="2">0</pdfrwt>
<totfact> 0.12595185E+12</totfact>
</mgrwt>
</event>
<event>
 4    2  0.2130683E+006  0.3584474E+01  0.7546771E-02  0.2364537E+00
         22   -1    0    0    0    0  0.00000000000E+00  0.00000000000E+00  0.36340471931E+01  0.36340471931E+01  0.00000000000E+00 0.  1.
         22   -1    0    0    0    0 -0.00000000000E+00 -0.00000000000E+00 -0.51700848060E+01  0.51700848060E+01  0.00000000000E+00 0. -1.
          4    1    1    2  501    0  0.35572922133E+01  0.44059593311E+00 -0.32431672620E+01  0.48338997255E+01  0.00000000000E+00 0. -1.
         -4    1    1    2    0  501 -0.35572922133E+01 -0.44059593311E+00  0.17071296491E+01  0.39702322736E+01  0.00000000000E+00 0.  1.
<mgrwt>
<rscale>  0 0.35844738E+01</rscale>
<asrwt>0</asrwt>
<pdfrwt beam="1">0</pdfrwt>
<pdfrwt beam="2">0</pdfrwt>
<totfact> 0.78585885E+11</totfact>
</mgrwt>
</event>
<event>
 4    2  0.2130683E+006  0.2271140E+01  0.7546771E-02  0.2818920E+00
         22   -1    0    0    0    0  0.00000000000E+00  0.00000000000E+00  0.23909930170E+01  0.23909930170E+01  0.00000000000E+00 0. -1.
         22   -1    0    0    0    0 -0.00000000000E+00 -0.00000000000E+00 -0.22635793010E+01  0.22635793010E+01  0.00000000000E+00 0.  1.
          4    1    1    2  501    0  0.27148202442E+00 -0.22548559417E+01  0.56800345748E+00  0.23410907149E+01  0.00000000000E+00 0. -1.
         -4    1    1    2    0  501 -0.27148202442E+00  0.22548559417E+01 -0.44058974155E+00  0.23134816031E+01  0.00000000000E+00 0.  1.
<mgrwt>
<rscale>  0 0.22711402E+01</rscale>
<asrwt>0</asrwt>
<pdfrwt beam="1">0</pdfrwt>
<pdfrwt beam="2">0</pdfrwt>
<totfact> 0.33739169E+12</totfact>
</mgrwt>
</event>
<event>
 4    2  0.2130683E+006  0.2133491E+01  0.7546771E-02  0.2896099E+00
         22   -1    0    0    0    0  0.00000000000E+00  0.00000000000E+00  0.84454028111E+01  0.84454028111E+01  0.00000000000E+00 0.  1.
         22   -1    0    0    0    0 -0.00000000000E+00 -0.00000000000E+00 -0.68755810448E+01  0.68755810448E+01  0.00000000000E+00 0. -1.
          4    1    1    2  501    0 -0.20534325423E+01 -0.57896368641E+00 -0.65692075880E+01  0.69069727443E+01  0.00000000000E+00 0. -1.
         -4    1    1    2    0  501  0.20534325423E+01  0.57896368641E+00  0.81390293543E+01  0.84140111116E+01  0.00000000000E+00 0.  1.
<mgrwt>
<rscale>  0 0.21334911E+01</rscale>
<asrwt>0</asrwt>
<pdfrwt beam="1">0</pdfrwt>
<pdfrwt beam="2">0</pdfrwt>
<totfact> 0.20553533E+11</totfact>
</mgrwt>
</event>
<event>
 4    2  0.2130683E+006  0.2672074E+01  0.7546771E-02  0.2637208E+00
         22   -1    0    0    0    0  0.00000000000E+00  0.00000000000E+00  0.52150188936E+00  0.52150188936E+00  0.00000000000E+00 0.  1.
         22   -1    0    0    0    0 -0.00000000000E+00 -0.00000000000E+00 -0.15941913491E+02  0.15941913491E+02  0.00000000000E+00 0. -1.
          4    1    1    2  501    0 -0.24849439596E+01 -0.98236074526E+00 -0.10803215060E+02  0.11128766093E+02  0.00000000000E+00 0. -1.
         -4    1    1    2    0  501  0.24849439596E+01  0.98236074526E+00 -0.46171965413E+01  0.53346492872E+01  0.00000000000E+00 0.  1.
<mgrwt>
<rscale>  0 0.26720739E+01</rscale>
<asrwt>0</asrwt>
<pdfrwt beam="1">0</pdfrwt>
<pdfrwt beam="2">0</pdfrwt>
<totfact> 0.18799838E+12</totfact>
</mgrwt>
</event>
<event>
 4    2  0.2130683E+006  0.3877729E+01  0.7546771E-02  0.2301294E+00
         22   -1    0    0    0    0  0.00000000000E+00  0.00000000000E+00  0.51242757923E+00  0.51242757923E+00  0.00000000000E+00 0.  1.
         22   -1    0    0    0    0 -0.00000000000E+00 -0.00000000000E+00 -0.32517759329E+02  0.32517759329E+02  0.00000000000E+00 0. -1.
          4    1    1    2  501    0  0.26880702168E+01  0.27948268408E+01 -0.21162002698E+02  0.21514347231E+02  0.00000000000E+00 0. -1.
         -4    1    1    2    0  501 -0.26880702168E+01 -0.27948268408E+01 -0.10843329052E+02  0.11515839678E+02  0.00000000000E+00 0.  1.
<mgrwt>
<rscale>  0 0.38777285E+01</rscale>
<asrwt>0</asrwt>
<pdfrwt beam="1">0</pdfrwt>
<pdfrwt beam="2">0</pdfrwt>
<totfact> 0.78341851E+11</totfact>
</mgrwt>
</event>
<event>
 4    2  0.2130683E+006  0.2281822E+01  0.7546771E-02  0.2813303E+00
         22   -1    0    0    0    0  0.00000000000E+00  0.00000000000E+00  0.67553224804E+01  0.67553224804E+01  0.00000000000E+00 0. -1.
         22   -1    0    0    0    0 -0.00000000000E+00 -0.00000000000E+00 -0.77387286838E+00  0.77387286838E+00  0.00000000000E+00 0.  1.
          4    1    1    2  501    0 -0.18821341113E+01  0.12900704273E+01  0.27518394689E+01  0.35748190140E+01  0.00000000000E+00 0. -1.
         -4    1    1    2    0  501  0.18821341113E+01 -0.12900704273E+01  0.32296101432E+01  0.39543763348E+01  0.00000000000E+00 0.  1.
<mgrwt>
<rscale>  0 0.22818218E+01</rscale>
<asrwt>0</asrwt>
<pdfrwt beam="1">0</pdfrwt>
<pdfrwt beam="2">0</pdfrwt>
<totfact> 0.34059282E+12</totfact>
</mgrwt>
</event>
<event>
 4    2  0.2130683E+006  0.2473374E+01  0.7546771E-02  0.2720386E+00
         22   -1    0    0    0    0  0.00000000000E+00  0.00000000000E+00  0.17472959746E+02  0.17472959746E+02  0.00000000000E+00 0.  1.
         22   -1    0    0    0    0 -0.00000000000E+00 -0.00000000000E+00 -0.38575291839E+00  0.38575291839E+00  0.00000000000E+00 0. -1.
          4    1    1    2  501    0  0.17510135794E+01  0.17468628988E+01  0.11257605121E+02  0.11526111729E+02  0.00000000000E+00 0.  1.
         -4    1    1    2    0  501 -0.17510135794E+01 -0.17468628988E+01  0.58296017071E+01  0.63326009353E+01  0.00000000000E+00 0. -1.
<mgrwt>
<rscale>  0 0.24733739E+01</rscale>
<asrwt>0</asrwt>
<pdfrwt beam="1">0</pdfrwt>
<pdfrwt beam="2">0</pdfrwt>
<totfact> 0.23580003E+12</totfact>
</mgrwt>
</event>
<event>
 4    2  0.2130683E+006  0.2690082E+01  0.7546771E-02  0.2630231E+00
         22   -1    0    0    0    0  0.00000000000E+00  0.00000000000E+00  0.78847589831E+00  0.78847589831E+00  0.00000000000E+00 0. -1.
         22   -1    0    0    0    0 -0.00000000000E+00 -0.00000000000E+00 -0.10677439699E+02  0.10677439699E+02  0.00000000000E+00 0.  1.
          4    1    1    2  501    0  0.21708797466E+01  0.15886538242E+01 -0.70929384300E+01  0.75859287776E+01  0.00000000000E+00 0. -1.
         -4    1    1    2    0  501 -0.21708797466E+01 -0.15886538242E+01 -0.27960253705E+01  0.38799868196E+01  0.00000000000E+00 0.  1.
<mgrwt>
<rscale>  0 0.26900818E+01</rscale>
<asrwt>0</asrwt>
<pdfrwt beam="1">0</pdfrwt>
<pdfrwt beam="2">0</pdfrwt>
<totfact> 0.19214703E+12</totfact>
</mgrwt>
</event>
<event>
 4    2  0.2130683E+006  0.2102128E+01  0.7546771E-02  0.2915043E+00
         22   -1    0    0    0    0  0.00000000000E+00  0.00000000000E+00  0.73776793430E+01  0.73776793430E+01  0.00000000000E+00 0. -1.
         22   -1    0    0    0    0 -0.00000000000E+00 -0.00000000000E+00 -0.60475271710E+00  0.60475271710E+00  0.00000000000E+00 0.  1.
          4    1    1    2  501    0  0.72397976912E+00 -0.19735231798E+01  0.29958663312E+01  0.36598026616E+01  0.00000000000E+00 0.  1.
         -4    1    1    2    0  501 -0.72397976912E+00  0.19735231798E+01  0.37770602947E+01  0.43226293985E+01  0.00000000000E+00 0. -1.
<mgrwt>
<rscale>  0 0.21021276E+01</rscale>
<asrwt>0</asrwt>
<pdfrwt beam="1">0</pdfrwt>
<pdfrwt beam="2">0</pdfrwt>
<totfact> 0.40545611E+12</totfact>
</mgrwt>
</event>
<event>
 4    2  0.2130683E+006  0.3217432E+01  0.7546771E-02  0.2457635E+00
         22   -1    0    0    0    0  0.00000000000E+00  0.00000000000E+00  0.21408765931E+02  0.21408765931E+02  0.00000000000E+00 0.  1.
         22   -1    0    0    0    0 -0.00000000000E+00 -0.00000000000E+00 -0.69948825663E+00  0.69948825663E+00  0.00000000000E+00 0. -1.
          4    1    1    2  501    0 -0.28184145684E+01 -0.15519044221E+01  0.16496712774E+02  0.16807539985E+02  0.00000000000E+00 0.  1.
         -4    1    1    2    0  501  0.28184145684E+01  0.15519044221E+01  0.42125649009E+01  0.53007142027E+01  0.00000000000E+00 0. -1.
<mgrwt>
<rscale>  0 0.32174319E+01</rscale>
<asrwt>0</asrwt>
<pdfrwt beam="1">0</pdfrwt>
<pdfrwt beam="2">0</pdfrwt>
<totfact> 0.93466769E+11</totfact>
</mgrwt>
</event>
<event>
 4    2  0.2130683E+006  0.2281903E+01  0.7546771E-02  0.2813261E+00
         22   -1    0    0    0    0  0.00000000000E+00  0.00000000000E+00  0.54032868749E+00  0.54032868749E+00  0.00000000000E+00 0.  1.
         22   -1    0    0    0    0 -0.00000000000E+00 -0.00000000000E+00 -0.10196029332E+02  0.10196029332E+02  0.00000000000E+00 0. -1.
          4    1    1    2  501    0  0.13949014843E+01 -0.18059159701E+01 -0.60849664967E+01  0.64987614133E+01  0.00000000000E+00 0. -1.
         -4    1    1    2    0  501 -0.13949014843E+01  0.18059159701E+01 -0.35707341478E+01  0.42375966061E+01  0.00000000000E+00 0.  1.
<mgrwt>
<rscale>  0 0.22819033E+01</rscale>
<asrwt>0</asrwt>
<pdfrwt beam="1">0</pdfrwt>
<pdfrwt beam="2">0</pdfrwt>
<totfact> 0.31190457E+12</totfact>
</mgrwt>
</event>
<event>
 4    2  0.2130683E+006  0.3117228E+01  0.7546771E-02  0.2486385E+00
         22   -1    0    0    0    0  0.00000000000E+00  0.00000000000E+00  0.22677938389E+02  0.22677938389E+02  0.00000000000E+00 0.  1.
         22   -1    0    0    0    0 -0.00000000000E+00 -0.00000000000E+00 -0.16580292183E+01  0.16580292183E+01  0.00000000000E+00 0. -1.
          4    1    1    2  501    0  0.19757639551E+01  0.24111132495E+01  0.31554699306E-01  0.31173876895E+01  0.00000000000E+00 0. -1.
         -4    1    1    2    0  501 -0.19757639551E+01 -0.24111132495E+01  0.20988354471E+02  0.21218579918E+02  0.00000000000E+00 0.  1.
<mgrwt>
<rscale>  0 0.31172280E+01</rscale>
<asrwt>0</asrwt>
<pdfrwt beam="1">0</pdfrwt>
<pdfrwt beam="2">0</pdfrwt>
<totfact> 0.32408751E+11</totfact>
</mgrwt>
</event>
<event>
 4    2  0.2130683E+006  0.2962584E+01  0.7546771E-02  0.2534138E+00
         22   -1    0    0    0    0  0.00000000000E+00  0.00000000000E+00  0.10489937173E+02  0.10489937173E+02  0.00000000000E+00 0.  1.
         22   -1    0    0    0    0 -0.00000000000E+00 -0.00000000000E+00 -0.15835763606E+01  0.15835763606E+01  0.00000000000E+00 0. -1.
          4    1    1    2  501    0  0.26148122129E+01  0.13927172696E+01  0.30737175260E+00  0.29784864774E+01  0.00000000000E+00 0. -1.
         -4    1    1    2    0  501 -0.26148122129E+01 -0.13927172696E+01  0.85989890596E+01  0.90950270559E+01  0.00000000000E+00 0.  1.
<mgrwt>
<rscale>  0 0.29625841E+01</rscale>
<asrwt>0</asrwt>
<pdfrwt beam="1">0</pdfrwt>
<pdfrwt beam="2">0</pdfrwt>
<totfact> 0.88390643E+11</totfact>
</mgrwt>
</event>
<event>
 4    2  0.2130683E+006  0.2132260E+01  0.7546771E-02  0.2896832E+00
         22   -1    0    0    0    0  0.00000000000E+00  0.00000000000E+00  0.22841380586E+00  0.22841380586E+00  0.00000000000E+00 0.  1.
         22   -1    0    0    0    0 -0.00000000000E+00 -0.00000000000E+00 -0.24912390410E+02  0.24912390410E+02  0.00000000000E+00 0. -1.
          4    1    1    2  501    0 -0.17851545022E+01 -0.11660858307E+01 -0.17977788113E+02  0.18103795133E+02  0.00000000000E+00 0.  1.
         -4    1    1    2    0  501  0.17851545022E+01  0.11660858307E+01 -0.67061884903E+01  0.70370090826E+01  0.00000000000E+00 0. -1.
<mgrwt>
<rscale>  0 0.21322600E+01</rscale>
<asrwt>0</asrwt>
<pdfrwt beam="1">0</pdfrwt>
<pdfrwt beam="2">0</pdfrwt>
<totfact> 0.27236330E+12</totfact>
</mgrwt>
</event>
<event>
 4    2  0.2130683E+006  0.2745266E+01  0.7546771E-02  0.2609373E+00
         22   -1    0    0    0    0  0.00000000000E+00  0.00000000000E+00  0.42445051253E+00  0.42445051253E+00  0.00000000000E+00 0. -1.
         22   -1    0    0    0    0 -0.00000000000E+00 -0.00000000000E+00 -0.19926322862E+02  0.19926322862E+02  0.00000000000E+00 0.  1.
          4    1    1    2  501    0 -0.27168322690E+01  0.39409349782E+00 -0.13109183849E+02  0.13393550255E+02  0.00000000000E+00 0. -1.
         -4    1    1    2    0  501  0.27168322690E+01 -0.39409349782E+00 -0.63926885012E+01  0.69572231196E+01  0.00000000000E+00 0.  1.
<mgrwt>
<rscale>  0 0.27452663E+01</rscale>
<asrwt>0</asrwt>
<pdfrwt beam="1">0</pdfrwt>
<pdfrwt beam="2">0</pdfrwt>
<totfact> 0.17984275E+12</totfact>
</mgrwt>
</event>
<event>
 4    2  0.2130683E+006  0.2168064E+01  0.7546771E-02  0.2875830E+00
         22   -1    0    0    0    0  0.00000000000E+00  0.00000000000E+00  0.56008110822E-01  0.56008110822E-01  0.00000000000E+00 0. -1.
         22   -1    0    0    0    0 -0.00000000000E+00 -0.00000000000E+00 -0.83938287742E+02  0.83938287742E+02  0.00000000000E+00 0.  1.
          4    1    1    2  501    0 -0.66362449331E+00 -0.20640024580E+01 -0.42461344772E+02  0.42516659129E+02  0.00000000000E+00 0. -1.
         -4    1    1    2    0  501  0.66362449331E+00  0.20640024580E+01 -0.41420934859E+02  0.41477636724E+02  0.00000000000E+00 0.  1.
<mgrwt>
<rscale>  0 0.21680645E+01</rscale>
<asrwt>0</asrwt>
<pdfrwt beam="1">0</pdfrwt>
<pdfrwt beam="2">0</pdfrwt>
<totfact> 0.26234199E+12</totfact>
</mgrwt>
</event>
<event>
 4    2  0.2130683E+006  0.2101002E+01  0.7546771E-02  0.2915733E+00
         22   -1    0    0    0    0  0.00000000000E+00  0.00000000000E+00  0.37274515297E+01  0.37274515297E+01  0.00000000000E+00 0. -1.
         22   -1    0    0    0    0 -0.00000000000E+00 -0.00000000000E+00 -0.17573078963E+01  0.17573078963E+01  0.00000000000E+00 0.  1.
          4    1    1    2  501    0  0.14214233956E+01 -0.15471797764E+01 -0.58097745998E+00  0.21798496597E+01  0.00000000000E+00 0.  1.
         -4    1    1    2    0  501 -0.14214233956E+01  0.15471797764E+01  0.25511210933E+01  0.33049097662E+01  0.00000000000E+00 0. -1.
<mgrwt>
<rscale>  0 0.21010021E+01</rscale>
<asrwt>0</asrwt>
<pdfrwt beam="1">0</pdfrwt>
<pdfrwt beam="2">0</pdfrwt>
<totfact> 0.26922639E+12</totfact>
</mgrwt>
</event>
<event>
 4    2  0.2130683E+006  0.2133961E+01  0.7546771E-02  0.2895819E+00
         22   -1    0    0    0    0  0.00000000000E+00  0.00000000000E+00  0.50981683446E+01  0.50981683446E+01  0.00000000000E+00 0.  1.
         22   -1    0    0    0    0 -0.00000000000E+00 -0.00000000000E+00 -0.12270625944E+01  0.12270625944E+01  0.00000000000E+00 0. -1.
          4    1    1    2  501    0 -0.86385663693E+00 -0.19512921135E+01  0.28593449069E+00  0.21530322186E+01  0.00000000000E+00 0. -1.
         -4    1    1    2    0  501  0.86385663693E+00  0.19512921135E+01  0.35851712595E+01  0.41721987203E+01  0.00000000000E+00 0.  1.
<mgrwt>
<rscale>  0 0.21339609E+01</rscale>
<asrwt>0</asrwt>
<pdfrwt beam="1">0</pdfrwt>
<pdfrwt beam="2">0</pdfrwt>
<totfact> 0.28126207E+12</totfact>
</mgrwt>
</event>
<event>
 4    2  0.2130683E+006  0.2566912E+01  0.7546771E-02  0.2679746E+00
         22   -1    0    0    0    0  0.00000000000E+00  0.00000000000E+00  0.39231455627E+00  0.39231455627E+00  0.00000000000E+00 0.  1.
         22   -1    0    0    0    0 -0.00000000000E+00 -0.00000000000E+00 -0.16805145001E+02  0.16805145001E+02  0.00000000000E+00 0. -1.
          4    1    1    2  501    0 -0.34118446171E+00  0.25441361286E+01 -0.79981520031E+01  0.83999685085E+01  0.00000000000E+00 0.  1.
         -4    1    1    2    0  501  0.34118446171E+00 -0.25441361286E+01 -0.84146784412E+01  0.87974910484E+01  0.00000000000E+00 0. -1.
<mgrwt>
<rscale>  0 0.25669117E+01</rscale>
<asrwt>0</asrwt>
<pdfrwt beam="1">0</pdfrwt>
<pdfrwt beam="2">0</pdfrwt>
<totfact> 0.24280383E+12</totfact>
</mgrwt>
</event>
<event>
 4    2  0.2130683E+006  0.2755956E+01  0.7546771E-02  0.2605421E+00
         22   -1    0    0    0    0  0.00000000000E+00  0.00000000000E+00  0.45384536055E+01  0.45384536055E+01  0.00000000000E+00 0. -1.
         22   -1    0    0    0    0 -0.00000000000E+00 -0.00000000000E+00 -0.22395475657E+01  0.22395475657E+01  0.00000000000E+00 0.  1.
          4    1    1    2  501    0  0.18866362158E+01 -0.20089542121E+01 -0.55428104134E+00  0.28111422429E+01  0.00000000000E+00 0.  1.
         -4    1    1    2    0  501 -0.18866362158E+01  0.20089542121E+01  0.28531870811E+01  0.39668589283E+01  0.00000000000E+00 0. -1.
<mgrwt>
<rscale>  0 0.27559560E+01</rscale>
<asrwt>0</asrwt>
<pdfrwt beam="1">0</pdfrwt>
<pdfrwt beam="2">0</pdfrwt>
<totfact> 0.16128447E+12</totfact>
</mgrwt>
</event>
<event>
 4    2  0.2130683E+006  0.2026024E+01  0.7546771E-02  0.2963377E+00
         22   -1    0    0    0    0  0.00000000000E+00  0.00000000000E+00  0.33186996982E+01  0.33186996982E+01  0.00000000000E+00 0. -1.
         22   -1    0    0    0    0 -0.00000000000E+00 -0.00000000000E+00 -0.12392554177E+01  0.12392554177E+01  0.00000000000E+00 0.  1.
          4    1    1    2  501    0 -0.15433319422E+01  0.13125922895E+01  0.93955827194E+00  0.22332804904E+01  0.00000000000E+00 0.  1.
         -4    1    1    2    0  501  0.15433319422E+01 -0.13125922895E+01  0.11398860085E+01  0.23246746255E+01  0.00000000000E+00 0. -1.
<mgrwt>
<rscale>  0 0.20260237E+01</rscale>
<asrwt>0</asrwt>
<pdfrwt beam="1">0</pdfrwt>
<pdfrwt beam="2">0</pdfrwt>
<totfact> 0.46105753E+12</totfact>
</mgrwt>
</event>
<event>
 4    2  0.2130683E+006  0.1049518E+02  0.7546771E-02  0.1758983E+00
         22   -1    0    0    0    0  0.00000000000E+00  0.00000000000E+00  0.53183765644E+01  0.53183765644E+01  0.00000000000E+00 0.  1.
         22   -1    0    0    0    0 -0.00000000000E+00 -0.00000000000E+00 -0.21155833453E+02  0.21155833453E+02  0.00000000000E+00 0. -1.
          4    1    1    2  501    0 -0.26158929746E+01 -0.10163949912E+02 -0.98382277916E+01  0.14385391894E+02  0.00000000000E+00 0. -1.
         -4    1    1    2    0  501  0.26158929746E+01  0.10163949912E+02 -0.59992290971E+01  0.12088818124E+02  0.00000000000E+00 0.  1.
<mgrwt>
<rscale>  0 0.10495179E+02</rscale>
<asrwt>0</asrwt>
<pdfrwt beam="1">0</pdfrwt>
<pdfrwt beam="2">0</pdfrwt>
<totfact> 0.90576048E+10</totfact>
</mgrwt>
</event>
<event>
 4    2  0.2130683E+006  0.3102283E+01  0.7546771E-02  0.2490814E+00
         22   -1    0    0    0    0  0.00000000000E+00  0.00000000000E+00  0.13650769890E+01  0.13650769890E+01  0.00000000000E+00 0.  1.
         22   -1    0    0    0    0 -0.00000000000E+00 -0.00000000000E+00 -0.70557519940E+01  0.70557519940E+01  0.00000000000E+00 0. -1.
          4    1    1    2  501    0 -0.29622830369E+01 -0.92143408509E+00 -0.27279785872E+01  0.41311050260E+01  0.00000000000E+00 0. -1.
         -4    1    1    2    0  501  0.29622830369E+01  0.92143408509E+00 -0.29626964177E+01  0.42897239570E+01  0.00000000000E+00 0.  1.
<mgrwt>
<rscale>  0 0.31022833E+01</rscale>
<asrwt>0</asrwt>
<pdfrwt beam="1">0</pdfrwt>
<pdfrwt beam="2">0</pdfrwt>
<totfact> 0.16905485E+12</totfact>
</mgrwt>
</event>
<event>
 4    2  0.2130683E+006  0.3335679E+01  0.7546771E-02  0.2425683E+00
         22   -1    0    0    0    0  0.00000000000E+00  0.00000000000E+00  0.22342753117E+01  0.22342753117E+01  0.00000000000E+00 0. -1.
         22   -1    0    0    0    0 -0.00000000000E+00 -0.00000000000E+00 -0.49904392856E+01  0.49904392856E+01  0.00000000000E+00 0.  1.
          4    1    1    2  501    0 -0.17871304798E+01  0.28165440108E+01 -0.15430712618E+01  0.36752992308E+01  0.00000000000E+00 0.  1.
         -4    1    1    2    0  501  0.17871304798E+01 -0.28165440108E+01 -0.12130927120E+01  0.35494153666E+01  0.00000000000E+00 0. -1.
<mgrwt>
<rscale>  0 0.33356792E+01</rscale>
<asrwt>0</asrwt>
<pdfrwt beam="1">0</pdfrwt>
<pdfrwt beam="2">0</pdfrwt>
<totfact> 0.14455590E+12</totfact>
</mgrwt>
</event>
<event>
 4    2  0.2130683E+006  0.3374826E+01  0.7546771E-02  0.2415540E+00
         22   -1    0    0    0    0  0.00000000000E+00  0.00000000000E+00  0.17737195083E+00  0.17737195083E+00  0.00000000000E+00 0.  1.
         22   -1    0    0    0    0 -0.00000000000E+00 -0.00000000000E+00 -0.98873208839E+02  0.98873208839E+02  0.00000000000E+00 0. -1.
          4    1    1    2  501    0  0.24519209105E+01 -0.23189516678E+01 -0.78670889341E+02  0.78743242775E+02  0.00000000000E+00 0. -1.
         -4    1    1    2    0  501 -0.24519209105E+01  0.23189516678E+01 -0.20024947547E+02  0.20307338015E+02  0.00000000000E+00 0.  1.
<mgrwt>
<rscale>  0 0.33748264E+01</rscale>
<asrwt>0</asrwt>
<pdfrwt beam="1">0</pdfrwt>
<pdfrwt beam="2">0</pdfrwt>
<totfact> 0.58288089E+11</totfact>
</mgrwt>
</event>
<event>
 4    2  0.2130683E+006  0.2284943E+01  0.7546771E-02  0.2811671E+00
         22   -1    0    0    0    0  0.00000000000E+00  0.00000000000E+00  0.85346902119E+02  0.85346902119E+02  0.00000000000E+00 0. -1.
         22   -1    0    0    0    0 -0.00000000000E+00 -0.00000000000E+00 -0.64863651641E-01  0.64863651641E-01  0.00000000000E+00 0.  1.
          4    1    1    2  501    0 -0.22751297793E+01  0.21154412231E+00  0.52827183880E+02  0.52876576318E+02  0.00000000000E+00 0. -1.
         -4    1    1    2    0  501  0.22751297793E+01 -0.21154412231E+00  0.32454854587E+02  0.32535189452E+02  0.00000000000E+00 0.  1.
<mgrwt>
<rscale>  0 0.22849434E+01</rscale>
<asrwt>0</asrwt>
<pdfrwt beam="1">0</pdfrwt>
<pdfrwt beam="2">0</pdfrwt>
<totfact> 0.21810974E+12</totfact>
</mgrwt>
</event>
<event>
 4    2  0.2130683E+006  0.6154725E+01  0.7546771E-02  0.2006084E+00
         22   -1    0    0    0    0  0.00000000000E+00  0.00000000000E+00  0.15886169265E+02  0.15886169265E+02  0.00000000000E+00 0. -1.
         22   -1    0    0    0    0 -0.00000000000E+00 -0.00000000000E+00 -0.25290888491E+01  0.25290888491E+01  0.00000000000E+00 0.  1.
          4    1    1    2  501    0 -0.31242299130E+01 -0.53028129007E+01  0.88800817054E+01  0.10804466128E+02  0.00000000000E+00 0.  1.
         -4    1    1    2    0  501  0.31242299130E+01  0.53028129007E+01  0.44769987106E+01  0.76107919866E+01  0.00000000000E+00 0. -1.
<mgrwt>
<rscale>  0 0.61547248E+01</rscale>
<asrwt>0</asrwt>
<pdfrwt beam="1">0</pdfrwt>
<pdfrwt beam="2">0</pdfrwt>
<totfact> 0.30945909E+11</totfact>
</mgrwt>
</event>
<event>
 4    2  0.2130683E+006  0.2428675E+01  0.7546771E-02  0.2740835E+00
         22   -1    0    0    0    0  0.00000000000E+00  0.00000000000E+00  0.18197864228E+00  0.18197864228E+00  0.00000000000E+00 0. -1.
         22   -1    0    0    0    0 -0.00000000000E+00 -0.00000000000E+00 -0.33401099722E+02  0.33401099722E+02  0.00000000000E+00 0.  1.
          4    1    1    2  501    0 -0.12341265637E+01  0.20917444842E+01 -0.19497732417E+02  0.19648410438E+02  0.00000000000E+00 0. -1.
         -4    1    1    2    0  501  0.12341265637E+01 -0.20917444842E+01 -0.13721388663E+02  0.13934667926E+02  0.00000000000E+00 0.  1.
<mgrwt>
<rscale>  0 0.24286752E+01</rscale>
<asrwt>0</asrwt>
<pdfrwt beam="1">0</pdfrwt>
<pdfrwt beam="2">0</pdfrwt>
<totfact> 0.24175121E+12</totfact>
</mgrwt>
</event>
<event>
 4    2  0.2130683E+006  0.2158916E+01  0.7546771E-02  0.2881132E+00
         22   -1    0    0    0    0  0.00000000000E+00  0.00000000000E+00  0.23492398497E+01  0.23492398497E+01  0.00000000000E+00 0.  1.
         22   -1    0    0    0    0 -0.00000000000E+00 -0.00000000000E+00 -0.26557028487E+01  0.26557028487E+01  0.00000000000E+00 0. -1.
          4    1    1    2  501    0  0.17907900728E+01 -0.12058146422E+01 -0.14117638032E+01  0.25795338866E+01  0.00000000000E+00 0. -1.
         -4    1    1    2    0  501 -0.17907900728E+01  0.12058146422E+01  0.11053008042E+01  0.24254088117E+01  0.00000000000E+00 0.  1.
<mgrwt>
<rscale>  0 0.21589159E+01</rscale>
<asrwt>0</asrwt>
<pdfrwt beam="1">0</pdfrwt>
<pdfrwt beam="2">0</pdfrwt>
<totfact> 0.28598459E+12</totfact>
</mgrwt>
</event>
<event>
 4    2  0.2130683E+006  0.2071648E+01  0.7546771E-02  0.2933986E+00
         22   -1    0    0    0    0  0.00000000000E+00  0.00000000000E+00  0.80453582824E+01  0.80453582824E+01  0.00000000000E+00 0.  1.
         22   -1    0    0    0    0 -0.00000000000E+00 -0.00000000000E+00 -0.64498599851E+00  0.64498599851E+00  0.00000000000E+00 0. -1.
          4    1    1    2  501    0 -0.20410568381E+01  0.35469796016E+00  0.18931910688E+01  0.28064026943E+01  0.00000000000E+00 0. -1.
         -4    1    1    2    0  501  0.20410568381E+01 -0.35469796016E+00  0.55071812150E+01  0.58839415866E+01  0.00000000000E+00 0.  1.
<mgrwt>
<rscale>  0 0.20716476E+01</rscale>
<asrwt>0</asrwt>
<pdfrwt beam="1">0</pdfrwt>
<pdfrwt beam="2">0</pdfrwt>
<totfact> 0.33970156E+12</totfact>
</mgrwt>
</event>
<event>
 4    2  0.2130683E+006  0.3112053E+01  0.7546771E-02  0.2487914E+00
         22   -1    0    0    0    0  0.00000000000E+00  0.00000000000E+00  0.75454414514E+00  0.75454414514E+00  0.00000000000E+00 0. -1.
         22   -1    0    0    0    0 -0.00000000000E+00 -0.00000000000E+00 -0.16224221461E+02  0.16224221461E+02  0.00000000000E+00 0.  1.
          4    1    1    2  501    0  0.27628260531E+01 -0.14323635107E+01 -0.11614722953E+02  0.12024419417E+02  0.00000000000E+00 0.  1.
         -4    1    1    2    0  501 -0.27628260531E+01  0.14323635107E+01 -0.38549543622E+01  0.49543461891E+01  0.00000000000E+00 0. -1.
<mgrwt>
<rscale>  0 0.31120529E+01</rscale>
<asrwt>0</asrwt>
<pdfrwt beam="1">0</pdfrwt>
<pdfrwt beam="2">0</pdfrwt>
<totfact> 0.12104772E+12</totfact>
</mgrwt>
</event>
<event>
 4    2  0.2130683E+006  0.3887436E+01  0.7546771E-02  0.2299342E+00
         22   -1    0    0    0    0  0.00000000000E+00  0.00000000000E+00  0.11683943843E+01  0.11683943843E+01  0.00000000000E+00 0. -1.
         22   -1    0    0    0    0 -0.00000000000E+00 -0.00000000000E+00 -0.22478804006E+02  0.22478804006E+02  0.00000000000E+00 0.  1.
          4    1    1    2  501    0  0.16860766236E+01 -0.35027568803E+01 -0.18359692059E+02  0.18766737933E+02  0.00000000000E+00 0.  1.
         -4    1    1    2    0  501 -0.16860766236E+01  0.35027568803E+01 -0.29507175632E+01  0.48804604579E+01  0.00000000000E+00 0. -1.
<mgrwt>
<rscale>  0 0.38874362E+01</rscale>
<asrwt>0</asrwt>
<pdfrwt beam="1">0</pdfrwt>
<pdfrwt beam="2">0</pdfrwt>
<totfact> 0.48991282E+11</totfact>
</mgrwt>
</event>
<event>
 4    2  0.2130683E+006  0.2990770E+01  0.7546771E-02  0.2525105E+00
         22   -1    0    0    0    0  0.00000000000E+00  0.00000000000E+00  0.60396247194E+01  0.60396247194E+01  0.00000000000E+00 0.  1.
         22   -1    0    0    0    0 -0.00000000000E+00 -0.00000000000E+00 -0.19973119193E+01  0.19973119193E+01  0.00000000000E+00 0. -1.
          4    1    1    2  501    0  0.84868186880E+00 -0.28678290392E+01 -0.21956084423E-01  0.29908504447E+01  0.00000000000E+00 0. -1.
         -4    1    1    2    0  501 -0.84868186880E+00  0.28678290392E+01  0.40642688845E+01  0.50460861941E+01  0.00000000000E+00 0.  1.
<mgrwt>
<rscale>  0 0.29907699E+01</rscale>
<asrwt>0</asrwt>
<pdfrwt beam="1">0</pdfrwt>
<pdfrwt beam="2">0</pdfrwt>
<totfact> 0.13124111E+12</totfact>
</mgrwt>
</event>
<event>
 4    2  0.2130683E+006  0.2856723E+01  0.7546771E-02  0.2569492E+00
         22   -1    0    0    0    0  0.00000000000E+00  0.00000000000E+00  0.97195347021E+01  0.97195347021E+01  0.00000000000E+00 0.  1.
         22   -1    0    0    0    0 -0.00000000000E+00 -0.00000000000E+00 -0.96258230915E+00  0.96258230915E+00  0.00000000000E+00 0. -1.
          4    1    1    2  501    0  0.96507628648E+00 -0.26887719459E+01  0.62873048652E+01  0.69058720871E+01  0.00000000000E+00 0.  1.
         -4    1    1    2    0  501 -0.96507628648E+00  0.26887719459E+01  0.24696475278E+01  0.37762449242E+01  0.00000000000E+00 0. -1.
<mgrwt>
<rscale>  0 0.28567231E+01</rscale>
<asrwt>0</asrwt>
<pdfrwt beam="1">0</pdfrwt>
<pdfrwt beam="2">0</pdfrwt>
<totfact> 0.17154839E+12</totfact>
</mgrwt>
</event>
<event>
 4    2  0.2130683E+006  0.3706618E+01  0.7546771E-02  0.2337147E+00
         22   -1    0    0    0    0  0.00000000000E+00  0.00000000000E+00  0.29600079704E+01  0.29600079704E+01  0.00000000000E+00 0.  1.
         22   -1    0    0    0    0 -0.00000000000E+00 -0.00000000000E+00 -0.51594742128E+01  0.51594742128E+01  0.00000000000E+00 0. -1.
          4    1    1    2  501    0  0.37314003848E+00 -0.36877881744E+01 -0.23859971433E+01  0.44081739389E+01  0.00000000000E+00 0. -1.
         -4    1    1    2    0  501 -0.37314003848E+00  0.36877881744E+01  0.18653090094E+00  0.37113082443E+01  0.00000000000E+00 0.  1.
<mgrwt>
<rscale>  0 0.37066177E+01</rscale>
<asrwt>0</asrwt>
<pdfrwt beam="1">0</pdfrwt>
<pdfrwt beam="2">0</pdfrwt>
<totfact> 0.10016472E+12</totfact>
</mgrwt>
</event>
<event>
 4    2  0.2130683E+006  0.2477093E+01  0.7546771E-02  0.2718716E+00
         22   -1    0    0    0    0  0.00000000000E+00  0.00000000000E+00  0.10641398263E+02  0.10641398263E+02  0.00000000000E+00 0. -1.
         22   -1    0    0    0    0 -0.00000000000E+00 -0.00000000000E+00 -0.11692014464E+01  0.11692014464E+01  0.00000000000E+00 0.  1.
          4    1    1    2  501    0 -0.23733241714E+01  0.70945294889E+00  0.53199783627E+00  0.25335770774E+01  0.00000000000E+00 0.  1.
         -4    1    1    2    0  501  0.23733241714E+01 -0.70945294889E+00  0.89401989807E+01  0.92770226325E+01  0.00000000000E+00 0. -1.
<mgrwt>
<rscale>  0 0.24770933E+01</rscale>
<asrwt>0</asrwt>
<pdfrwt beam="1">0</pdfrwt>
<pdfrwt beam="2">0</pdfrwt>
<totfact> 0.12307023E+12</totfact>
</mgrwt>
</event>
<event>
 4    2  0.2130683E+006  0.2332527E+01  0.7546771E-02  0.2787308E+00
         22   -1    0    0    0    0  0.00000000000E+00  0.00000000000E+00  0.31403162398E+01  0.31403162398E+01  0.00000000000E+00 0. -1.
         22   -1    0    0    0    0 -0.00000000000E+00 -0.00000000000E+00 -0.31901237117E+01  0.31901237117E+01  0.00000000000E+00 0.  1.
          4    1    1    2  501    0  0.11432687443E+01  0.20331300795E+01 -0.21644362387E+01  0.31820536723E+01  0.00000000000E+00 0.  1.
         -4    1    1    2    0  501 -0.11432687443E+01 -0.20331300795E+01  0.21146287668E+01  0.31483862792E+01  0.00000000000E+00 0. -1.
<mgrwt>
<rscale>  0 0.23325268E+01</rscale>
<asrwt>0</asrwt>
<pdfrwt beam="1">0</pdfrwt>
<pdfrwt beam="2">0</pdfrwt>
<totfact> 0.16462661E+12</totfact>
</mgrwt>
</event>
<event>
 4    2  0.2130683E+006  0.2170494E+01  0.7546771E-02  0.2874429E+00
         22   -1    0    0    0    0  0.00000000000E+00  0.00000000000E+00  0.13449955764E+02  0.13449955764E+02  0.00000000000E+00 0.  1.
         22   -1    0    0    0    0 -0.00000000000E+00 -0.00000000000E+00 -0.79318028807E+00  0.79318028807E+00  0.00000000000E+00 0. -1.
          4    1    1    2  501    0 -0.11743619204E+01 -0.18253547394E+01  0.10066911208E+01  0.23925870637E+01  0.00000000000E+00 0. -1.
         -4    1    1    2    0  501  0.11743619204E+01  0.18253547394E+01  0.11650084355E+02  0.11850548989E+02  0.00000000000E+00 0.  1.
<mgrwt>
<rscale>  0 0.21704944E+01</rscale>
<asrwt>0</asrwt>
<pdfrwt beam="1">0</pdfrwt>
<pdfrwt beam="2">0</pdfrwt>
<totfact> 0.14402181E+12</totfact>
</mgrwt>
</event>
<event>
 4    2  0.2130683E+006  0.2680915E+01  0.7546771E-02  0.2633772E+00
         22   -1    0    0    0    0  0.00000000000E+00  0.00000000000E+00  0.20071587955E+01  0.20071587955E+01  0.00000000000E+00 0. -1.
         22   -1    0    0    0    0 -0.00000000000E+00 -0.00000000000E+00 -0.38176479688E+01  0.38176479688E+01  0.00000000000E+00 0.  1.
          4    1    1    2  501    0  0.24166998467E+01 -0.11605455786E+01 -0.16306093502E+01  0.31378640891E+01  0.00000000000E+00 0.  1.
         -4    1    1    2    0  501 -0.24166998467E+01  0.11605455786E+01 -0.17987982319E+00  0.26869426752E+01  0.00000000000E+00 0. -1.
<mgrwt>
<rscale>  0 0.26809148E+01</rscale>
<asrwt>0</asrwt>
<pdfrwt beam="1">0</pdfrwt>
<pdfrwt beam="2">0</pdfrwt>
<totfact> 0.22449849E+12</totfact>
</mgrwt>
</event>
<event>
 4    2  0.2130683E+006  0.2214754E+01  0.7546771E-02  0.2849424E+00
         22   -1    0    0    0    0  0.00000000000E+00  0.00000000000E+00  0.91014942167E+00  0.91014942167E+00  0.00000000000E+00 0. -1.
         22   -1    0    0    0    0 -0.00000000000E+00 -0.00000000000E+00 -0.13257141390E+02  0.13257141390E+02  0.00000000000E+00 0.  1.
          4    1    1    2  501    0  0.19898189295E+01  0.97250086697E+00 -0.11630541471E+02  0.11839536824E+02  0.00000000000E+00 0.  1.
         -4    1    1    2    0  501 -0.19898189295E+01 -0.97250086697E+00 -0.71645049691E+00  0.23277539868E+01  0.00000000000E+00 0. -1.
<mgrwt>
<rscale>  0 0.22147545E+01</rscale>
<asrwt>0</asrwt>
<pdfrwt beam="1">0</pdfrwt>
<pdfrwt beam="2">0</pdfrwt>
<totfact> 0.12533774E+12</totfact>
</mgrwt>
</event>
<event>
 4    2  0.2130683E+006  0.4167788E+01  0.7546771E-02  0.2246324E+00
         22   -1    0    0    0    0  0.00000000000E+00  0.00000000000E+00  0.15129736718E+02  0.15129736718E+02  0.00000000000E+00 0. -1.
         22   -1    0    0    0    0 -0.00000000000E+00 -0.00000000000E+00 -0.85910416828E+01  0.85910416828E+01  0.00000000000E+00 0.  1.
          4    1    1    2  501    0 -0.33763103333E+01 -0.24435606347E+01 -0.77701248752E+01  0.88173295627E+01  0.00000000000E+00 0.  1.
         -4    1    1    2    0  501  0.33763103333E+01  0.24435606347E+01  0.14308819910E+02  0.14903448838E+02  0.00000000000E+00 0. -1.
<mgrwt>
<rscale>  0 0.41677884E+01</rscale>
<asrwt>0</asrwt>
<pdfrwt beam="1">0</pdfrwt>
<pdfrwt beam="2">0</pdfrwt>
<totfact> 0.77403381E+10</totfact>
</mgrwt>
</event>
<event>
 4    2  0.2130683E+006  0.2103059E+01  0.7546771E-02  0.2914473E+00
         22   -1    0    0    0    0  0.00000000000E+00  0.00000000000E+00  0.61074099774E+00  0.61074099774E+00  0.00000000000E+00 0. -1.
         22   -1    0    0    0    0 -0.00000000000E+00 -0.00000000000E+00 -0.10447457447E+02  0.10447457447E+02  0.00000000000E+00 0.  1.
          4    1    1    2  501    0  0.20970048925E+01  0.15945893790E+00 -0.79810864755E+01  0.82535203400E+01  0.00000000000E+00 0.  1.
         -4    1    1    2    0  501 -0.20970048925E+01 -0.15945893790E+00 -0.18556299736E+01  0.28046781047E+01  0.00000000000E+00 0. -1.
<mgrwt>
<rscale>  0 0.21030589E+01</rscale>
<asrwt>0</asrwt>
<pdfrwt beam="1">0</pdfrwt>
<pdfrwt beam="2">0</pdfrwt>
<totfact> 0.26362018E+12</totfact>
</mgrwt>
</event>
<event>
 4    2  0.2130683E+006  0.3015867E+01  0.7546771E-02  0.2517190E+00
         22   -1    0    0    0    0  0.00000000000E+00  0.00000000000E+00  0.60906468374E+01  0.60906468374E+01  0.00000000000E+00 0.  1.
         22   -1    0    0    0    0 -0.00000000000E+00 -0.00000000000E+00 -0.17610488562E+01  0.17610488562E+01  0.00000000000E+00 0. -1.
          4    1    1    2  501    0 -0.25769095440E+01  0.15668411725E+01  0.36954380915E+01  0.47698759676E+01  0.00000000000E+00 0.  1.
         -4    1    1    2    0  501  0.25769095440E+01 -0.15668411725E+01  0.63415988962E+00  0.30818197260E+01  0.00000000000E+00 0. -1.
<mgrwt>
<rscale>  0 0.30158670E+01</rscale>
<asrwt>0</asrwt>
<pdfrwt beam="1">0</pdfrwt>
<pdfrwt beam="2">0</pdfrwt>
<totfact> 0.15028537E+12</totfact>
</mgrwt>
</event>
<event>
 4    2  0.2130683E+006  0.2869504E+01  0.7546771E-02  0.2565099E+00
         22   -1    0    0    0    0  0.00000000000E+00  0.00000000000E+00  0.11047630988E+02  0.11047630988E+02  0.00000000000E+00 0. -1.
         22   -1    0    0    0    0 -0.00000000000E+00 -0.00000000000E+00 -0.15550420148E+01  0.15550420148E+01  0.00000000000E+00 0.  1.
          4    1    1    2  501    0 -0.45043115518E+00 -0.28339308527E+01  0.19925416006E+00  0.28764134827E+01  0.00000000000E+00 0.  1.
         -4    1    1    2    0  501  0.45043115518E+00  0.28339308527E+01  0.92933348134E+01  0.97262595203E+01  0.00000000000E+00 0. -1.
<mgrwt>
<rscale>  0 0.28695038E+01</rscale>
<asrwt>0</asrwt>
<pdfrwt beam="1">0</pdfrwt>
<pdfrwt beam="2">0</pdfrwt>
<totfact> 0.84758672E+11</totfact>
</mgrwt>
</event>
<event>
 4    2  0.2130683E+006  0.2347753E+01  0.7546771E-02  0.2779710E+00
         22   -1    0    0    0    0  0.00000000000E+00  0.00000000000E+00  0.12646044777E+01  0.12646044777E+01  0.00000000000E+00 0. -1.
         22   -1    0    0    0    0 -0.00000000000E+00 -0.00000000000E+00 -0.58563390321E+01  0.58563390321E+01  0.00000000000E+00 0.  1.
          4    1    1    2  501    0 -0.18859506788E+00 -0.23401662662E+01 -0.40964280845E+01  0.47215113369E+01  0.00000000000E+00 0.  1.
         -4    1    1    2    0  501  0.18859506788E+00  0.23401662662E+01 -0.49530646996E+00  0.23994321729E+01  0.00000000000E+00 0. -1.
<mgrwt>
<rscale>  0 0.23477534E+01</rscale>
<asrwt>0</asrwt>
<pdfrwt beam="1">0</pdfrwt>
<pdfrwt beam="2">0</pdfrwt>
<totfact> 0.23048689E+12</totfact>
</mgrwt>
</event>
<event>
 4    2  0.2130683E+006  0.2639837E+01  0.7546771E-02  0.2649916E+00
         22   -1    0    0    0    0  0.00000000000E+00  0.00000000000E+00  0.26202772246E+01  0.26202772246E+01  0.00000000000E+00 0.  1.
         22   -1    0    0    0    0 -0.00000000000E+00 -0.00000000000E+00 -0.40788037999E+01  0.40788037999E+01  0.00000000000E+00 0. -1.
          4    1    1    2  501    0  0.23036044448E+01 -0.12892428792E+01 -0.27050947238E+01  0.37797193155E+01  0.00000000000E+00 0. -1.
         -4    1    1    2    0  501 -0.23036044448E+01  0.12892428792E+01  0.12465681484E+01  0.29193617090E+01  0.00000000000E+00 0.  1.
<mgrwt>
<rscale>  0 0.26398372E+01</rscale>
<asrwt>0</asrwt>
<pdfrwt beam="1">0</pdfrwt>
<pdfrwt beam="2">0</pdfrwt>
<totfact> 0.15240925E+12</totfact>
</mgrwt>
</event>
<event>
 4    2  0.2130683E+006  0.2022500E+01  0.7546771E-02  0.2965701E+00
         22   -1    0    0    0    0  0.00000000000E+00  0.00000000000E+00  0.90539305228E+00  0.90539305228E+00  0.00000000000E+00 0.  1.
         22   -1    0    0    0    0 -0.00000000000E+00 -0.00000000000E+00 -0.61207287287E+01  0.61207287287E+01  0.00000000000E+00 0. -1.
          4    1    1    2  501    0 -0.65333293320E+00 -0.19140698988E+01 -0.44053911407E+01  0.48474713616E+01  0.00000000000E+00 0. -1.
         -4    1    1    2    0  501  0.65333293320E+00  0.19140698988E+01 -0.80994453572E+00  0.21786504194E+01  0.00000000000E+00 0.  1.
<mgrwt>
<rscale>  0 0.20225003E+01</rscale>
<asrwt>0</asrwt>
<pdfrwt beam="1">0</pdfrwt>
<pdfrwt beam="2">0</pdfrwt>
<totfact> 0.32041325E+12</totfact>
</mgrwt>
</event>
<event>
 4    2  0.2130683E+006  0.2308691E+01  0.7546771E-02  0.2799393E+00
         22   -1    0    0    0    0  0.00000000000E+00  0.00000000000E+00  0.86944077489E+01  0.86944077489E+01  0.00000000000E+00 0. -1.
         22   -1    0    0    0    0 -0.00000000000E+00 -0.00000000000E+00 -0.69513828301E+00  0.69513828301E+00  0.00000000000E+00 0.  1.
          4    1    1    2  501    0 -0.17248442170E+01  0.15345897318E+01  0.23862577950E+01  0.33202830425E+01  0.00000000000E+00 0.  1.
         -4    1    1    2    0  501  0.17248442170E+01 -0.15345897318E+01  0.56130116709E+01  0.60692629894E+01  0.00000000000E+00 0. -1.
<mgrwt>
<rscale>  0 0.23086908E+01</rscale>
<asrwt>0</asrwt>
<pdfrwt beam="1">0</pdfrwt>
<pdfrwt beam="2">0</pdfrwt>
<totfact> 0.28424182E+12</totfact>
</mgrwt>
</event>
<event>
 4    2  0.2130683E+006  0.2797111E+01  0.7546771E-02  0.2590463E+00
         22   -1    0    0    0    0  0.00000000000E+00  0.00000000000E+00  0.28206288270E+01  0.28206288270E+01  0.00000000000E+00 0.  1.
         22   -1    0    0    0    0 -0.00000000000E+00 -0.00000000000E+00 -0.51204256375E+01  0.51204256375E+01  0.00000000000E+00 0. -1.
          4    1    1    2  501    0 -0.21335795178E+01 -0.18087749518E+01 -0.38378292933E+01  0.47489748441E+01  0.00000000000E+00 0. -1.
         -4    1    1    2    0  501  0.21335795178E+01  0.18087749518E+01  0.15380324828E+01  0.31920796204E+01  0.00000000000E+00 0.  1.
<mgrwt>
<rscale>  0 0.27971107E+01</rscale>
<asrwt>0</asrwt>
<pdfrwt beam="1">0</pdfrwt>
<pdfrwt beam="2">0</pdfrwt>
<totfact> 0.10692200E+12</totfact>
</mgrwt>
</event>
<event>
 4    2  0.2130683E+006  0.3011148E+01  0.7546771E-02  0.2518669E+00
         22   -1    0    0    0    0  0.00000000000E+00  0.00000000000E+00  0.36711647085E+00  0.36711647085E+00  0.00000000000E+00 0.  1.
         22   -1    0    0    0    0 -0.00000000000E+00 -0.00000000000E+00 -0.27442114916E+02  0.27442114916E+02  0.00000000000E+00 0. -1.
          4    1    1    2  501    0 -0.30020736477E+01  0.23359975154E+00 -0.17934507568E+02  0.18185532072E+02  0.00000000000E+00 0. -1.
         -4    1    1    2    0  501  0.30020736477E+01 -0.23359975154E+00 -0.91404908770E+01  0.96236993149E+01  0.00000000000E+00 0.  1.
<mgrwt>
<rscale>  0 0.30111485E+01</rscale>
<asrwt>0</asrwt>
<pdfrwt beam="1">0</pdfrwt>
<pdfrwt beam="2">0</pdfrwt>
<totfact> 0.14161494E+12</totfact>
</mgrwt>
</event>
<event>
 4    2  0.2130683E+006  0.2983032E+01  0.7546771E-02  0.2527569E+00
         22   -1    0    0    0    0  0.00000000000E+00  0.00000000000E+00  0.12593245911E+02  0.12593245911E+02  0.00000000000E+00 0.  1.
         22   -1    0    0    0    0 -0.00000000000E+00 -0.00000000000E+00 -0.16740243735E+01  0.16740243735E+01  0.00000000000E+00 0. -1.
          4    1    1    2  501    0  0.29768030541E+00  0.29681424038E+01  0.36645564150E-01  0.29832575803E+01  0.00000000000E+00 0. -1.
         -4    1    1    2    0  501 -0.29768030541E+00 -0.29681424038E+01  0.10882575973E+02  0.11284012704E+02  0.00000000000E+00 0.  1.
<mgrwt>
<rscale>  0 0.29830325E+01</rscale>
<asrwt>0</asrwt>
<pdfrwt beam="1">0</pdfrwt>
<pdfrwt beam="2">0</pdfrwt>
<totfact> 0.66373366E+11</totfact>
</mgrwt>
</event>
<event>
 4    2  0.2130683E+006  0.2317272E+01  0.7546771E-02  0.2795016E+00
         22   -1    0    0    0    0  0.00000000000E+00  0.00000000000E+00  0.22712324342E+01  0.22712324342E+01  0.00000000000E+00 0.  1.
         22   -1    0    0    0    0 -0.00000000000E+00 -0.00000000000E+00 -0.23653600700E+01  0.23653600700E+01  0.00000000000E+00 0. -1.
          4    1    1    2  501    0 -0.22801317798E+01 -0.41321624556E+00  0.32845208311E-02  0.23172741286E+01  0.00000000000E+00 0.  1.
         -4    1    1    2    0  501  0.22801317798E+01  0.41321624556E+00 -0.97412156667E-01  0.23193183756E+01  0.00000000000E+00 0. -1.
<mgrwt>
<rscale>  0 0.23172718E+01</rscale>
<asrwt>0</asrwt>
<pdfrwt beam="1">0</pdfrwt>
<pdfrwt beam="2">0</pdfrwt>
<totfact> 0.34030999E+12</totfact>
</mgrwt>
</event>
<event>
 4    2  0.2130683E+006  0.2037818E+01  0.7546771E-02  0.2955656E+00
         22   -1    0    0    0    0  0.00000000000E+00  0.00000000000E+00  0.48317622971E+00  0.48317622971E+00  0.00000000000E+00 0. -1.
         22   -1    0    0    0    0 -0.00000000000E+00 -0.00000000000E+00 -0.10562634932E+02  0.10562634932E+02  0.00000000000E+00 0.  1.
          4    1    1    2  501    0  0.10833270243E+00  0.20349359880E+01 -0.74236909158E+01  0.76983041810E+01  0.00000000000E+00 0.  1.
         -4    1    1    2    0  501 -0.10833270243E+00 -0.20349359880E+01 -0.26557677861E+01  0.33475069804E+01  0.00000000000E+00 0. -1.
<mgrwt>
<rscale>  0 0.20378176E+01</rscale>
<asrwt>0</asrwt>
<pdfrwt beam="1">0</pdfrwt>
<pdfrwt beam="2">0</pdfrwt>
<totfact> 0.33903055E+12</totfact>
</mgrwt>
</event>
<event>
 4    2  0.2130683E+006  0.3087951E+01  0.7546771E-02  0.2495097E+00
         22   -1    0    0    0    0  0.00000000000E+00  0.00000000000E+00  0.23663894156E+01  0.23663894156E+01  0.00000000000E+00 0.  1.
         22   -1    0    0    0    0 -0.00000000000E+00 -0.00000000000E+00 -0.65763410282E+01  0.65763410282E+01  0.00000000000E+00 0. -1.
          4    1    1    2  501    0  0.28096980273E+01  0.12810299663E+01 -0.48875465288E+01  0.57813105651E+01  0.00000000000E+00 0. -1.
         -4    1    1    2    0  501 -0.28096980273E+01 -0.12810299663E+01  0.67759491611E+00  0.31614198787E+01  0.00000000000E+00 0.  1.
<mgrwt>
<rscale>  0 0.30879509E+01</rscale>
<asrwt>0</asrwt>
<pdfrwt beam="1">0</pdfrwt>
<pdfrwt beam="2">0</pdfrwt>
<totfact> 0.97409217E+11</totfact>
</mgrwt>
</event>
<event>
 4    2  0.2130683E+006  0.2026766E+01  0.7546771E-02  0.2962889E+00
         22   -1    0    0    0    0  0.00000000000E+00  0.00000000000E+00  0.10729233957E+01  0.10729233957E+01  0.00000000000E+00 0. -1.
         22   -1    0    0    0    0 -0.00000000000E+00 -0.00000000000E+00 -0.38924531492E+01  0.38924531492E+01  0.00000000000E+00 0.  1.
          4    1    1    2  501    0 -0.17583338702E+01  0.10079895016E+01 -0.17277779738E+01  0.26632682105E+01  0.00000000000E+00 0.  1.
         -4    1    1    2    0  501  0.17583338702E+01 -0.10079895016E+01 -0.10917517797E+01  0.23021083343E+01  0.00000000000E+00 0. -1.
<mgrwt>
<rscale>  0 0.20267661E+01</rscale>
<asrwt>0</asrwt>
<pdfrwt beam="1">0</pdfrwt>
<pdfrwt beam="2">0</pdfrwt>
<totfact> 0.45096918E+12</totfact>
</mgrwt>
</event>
<event>
 4    2  0.2130683E+006  0.2483017E+01  0.7546771E-02  0.2716065E+00
         22   -1    0    0    0    0  0.00000000000E+00  0.00000000000E+00  0.15799054508E+01  0.15799054508E+01  0.00000000000E+00 0.  1.
         22   -1    0    0    0    0 -0.00000000000E+00 -0.00000000000E+00 -0.50769781210E+01  0.50769781210E+01  0.00000000000E+00 0. -1.
          4    1    1    2  501    0  0.24297019691E+01  0.51178449665E+00 -0.33495125875E+01  0.41694855322E+01  0.00000000000E+00 0.  1.
         -4    1    1    2    0  501 -0.24297019691E+01 -0.51178449665E+00 -0.14756008270E+00  0.24873980396E+01  0.00000000000E+00 0. -1.
<mgrwt>
<rscale>  0 0.24830173E+01</rscale>
<asrwt>0</asrwt>
<pdfrwt beam="1">0</pdfrwt>
<pdfrwt beam="2">0</pdfrwt>
<totfact> 0.21142675E+12</totfact>
</mgrwt>
</event>
<event>
 4    2  0.2130683E+006  0.2299077E+01  0.7546771E-02  0.2804335E+00
         22   -1    0    0    0    0  0.00000000000E+00  0.00000000000E+00  0.61144428532E+01  0.61144428532E+01  0.00000000000E+00 0. -1.
         22   -1    0    0    0    0 -0.00000000000E+00 -0.00000000000E+00 -0.10536772804E+01  0.10536772804E+01  0.00000000000E+00 0.  1.
          4    1    1    2  501    0  0.18619563147E+01  0.13486565043E+01  0.10116205870E+01  0.25117985382E+01  0.00000000000E+00 0.  1.
         -4    1    1    2    0  501 -0.18619563147E+01 -0.13486565043E+01  0.40491449857E+01  0.46563215954E+01  0.00000000000E+00 0. -1.
<mgrwt>
<rscale>  0 0.22990771E+01</rscale>
<asrwt>0</asrwt>
<pdfrwt beam="1">0</pdfrwt>
<pdfrwt beam="2">0</pdfrwt>
<totfact> 0.26982362E+12</totfact>
</mgrwt>
</event>
<event>
 4    2  0.2130683E+006  0.2176951E+01  0.7546771E-02  0.2870720E+00
         22   -1    0    0    0    0  0.00000000000E+00  0.00000000000E+00  0.12078219125E+01  0.12078219125E+01  0.00000000000E+00 0.  1.
         22   -1    0    0    0    0 -0.00000000000E+00 -0.00000000000E+00 -0.54798336994E+01  0.54798336994E+01  0.00000000000E+00 0. -1.
          4    1    1    2  501    0  0.20962164016E+01  0.58736232300E+00 -0.39179135221E+01  0.44820937148E+01  0.00000000000E+00 0. -1.
         -4    1    1    2    0  501 -0.20962164016E+01 -0.58736232300E+00 -0.35409826479E+00  0.22055618971E+01  0.00000000000E+00 0.  1.
<mgrwt>
<rscale>  0 0.21769515E+01</rscale>
<asrwt>0</asrwt>
<pdfrwt beam="1">0</pdfrwt>
<pdfrwt beam="2">0</pdfrwt>
<totfact> 0.26290551E+12</totfact>
</mgrwt>
</event>
<event>
 4    2  0.2130683E+006  0.2890194E+01  0.7546771E-02  0.2558061E+00
         22   -1    0    0    0    0  0.00000000000E+00  0.00000000000E+00  0.25832567221E+02  0.25832567221E+02  0.00000000000E+00 0. -1.
         22   -1    0    0    0    0 -0.00000000000E+00 -0.00000000000E+00 -0.48530872509E+00  0.48530872509E+00  0.00000000000E+00 0.  1.
          4    1    1    2  501    0  0.24975217221E+01  0.14545122085E+01  0.50721086815E+01  0.58377655823E+01  0.00000000000E+00 0.  1.
         -4    1    1    2    0  501 -0.24975217221E+01 -0.14545122085E+01  0.20275149814E+02  0.20480110363E+02  0.00000000000E+00 0. -1.
<mgrwt>
<rscale>  0 0.28901939E+01</rscale>
<asrwt>0</asrwt>
<pdfrwt beam="1">0</pdfrwt>
<pdfrwt beam="2">0</pdfrwt>
<totfact> 0.11163164E+12</totfact>
</mgrwt>
</event>
<event>
 4    2  0.2130683E+006  0.2369367E+01  0.7546771E-02  0.2769082E+00
         22   -1    0    0    0    0  0.00000000000E+00  0.00000000000E+00  0.58350083480E+00  0.58350083480E+00  0.00000000000E+00 0.  1.
         22   -1    0    0    0    0 -0.00000000000E+00 -0.00000000000E+00 -0.15590243919E+02  0.15590243919E+02  0.00000000000E+00 0. -1.
          4    1    1    2  501    0 -0.23178002053E+01 -0.49163272216E+00 -0.12507303159E+02  0.12729749913E+02  0.00000000000E+00 0.  1.
         -4    1    1    2    0  501  0.23178002053E+01  0.49163272216E+00 -0.24994399244E+01  0.34439948404E+01  0.00000000000E+00 0. -1.
<mgrwt>
<rscale>  0 0.23693671E+01</rscale>
<asrwt>0</asrwt>
<pdfrwt beam="1">0</pdfrwt>
<pdfrwt beam="2">0</pdfrwt>
<totfact> 0.17018402E+12</totfact>
</mgrwt>
</event>
<event>
 4    2  0.2130683E+006  0.2145618E+01  0.7546771E-02  0.2888918E+00
         22   -1    0    0    0    0  0.00000000000E+00  0.00000000000E+00  0.71943291457E+01  0.71943291457E+01  0.00000000000E+00 0.  1.
         22   -1    0    0    0    0 -0.00000000000E+00 -0.00000000000E+00 -0.18325167739E+01  0.18325167739E+01  0.00000000000E+00 0. -1.
          4    1    1    2  501    0 -0.81269100020E+00 -0.19857513746E+01 -0.96018792885E+00  0.23506671484E+01  0.00000000000E+00 0. -1.
         -4    1    1    2    0  501  0.81269100020E+00  0.19857513746E+01  0.63220003007E+01  0.66761787712E+01  0.00000000000E+00 0.  1.
<mgrwt>
<rscale>  0 0.21456177E+01</rscale>
<asrwt>0</asrwt>
<pdfrwt beam="1">0</pdfrwt>
<pdfrwt beam="2">0</pdfrwt>
<totfact> 0.11764447E+12</totfact>
</mgrwt>
</event>
<event>
 4    2  0.2130683E+006  0.4396626E+01  0.7546771E-02  0.2207336E+00
         22   -1    0    0    0    0  0.00000000000E+00  0.00000000000E+00  0.35683122318E+00  0.35683122318E+00  0.00000000000E+00 0.  1.
         22   -1    0    0    0    0 -0.00000000000E+00 -0.00000000000E+00 -0.13851984168E+03  0.13851984168E+03  0.00000000000E+00 0. -1.
          4    1    1    2  501    0  0.57115882501E+00  0.43593693283E+01 -0.12326660184E+03  0.12334498552E+03  0.00000000000E+00 0. -1.
         -4    1    1    2    0  501 -0.57115882501E+00 -0.43593693283E+01 -0.14896408619E+02  0.15531687387E+02  0.00000000000E+00 0.  1.
<mgrwt>
<rscale>  0 0.43966264E+01</rscale>
<asrwt>0</asrwt>
<pdfrwt beam="1">0</pdfrwt>
<pdfrwt beam="2">0</pdfrwt>
<totfact> 0.16433312E+11</totfact>
</mgrwt>
</event>
<event>
 4    2  0.2130683E+006  0.2149007E+01  0.7546771E-02  0.2886925E+00
         22   -1    0    0    0    0  0.00000000000E+00  0.00000000000E+00  0.11349678200E+02  0.11349678200E+02  0.00000000000E+00 0.  1.
         22   -1    0    0    0    0 -0.00000000000E+00 -0.00000000000E+00 -0.43831304684E+00  0.43831304684E+00  0.00000000000E+00 0. -1.
          4    1    1    2  501    0 -0.44236091133E+00  0.21029856454E+01  0.70334520957E+01  0.73544326894E+01  0.00000000000E+00 0.  1.
         -4    1    1    2    0  501  0.44236091133E+00 -0.21029856454E+01  0.38779130570E+01  0.44335585570E+01  0.00000000000E+00 0. -1.
<mgrwt>
<rscale>  0 0.21490072E+01</rscale>
<asrwt>0</asrwt>
<pdfrwt beam="1">0</pdfrwt>
<pdfrwt beam="2">0</pdfrwt>
<totfact> 0.34678790E+12</totfact>
</mgrwt>
</event>
<event>
 4    2  0.2130683E+006  0.2937647E+01  0.7546771E-02  0.2542259E+00
         22   -1    0    0    0    0  0.00000000000E+00  0.00000000000E+00  0.86331189705E+01  0.86331189705E+01  0.00000000000E+00 0.  1.
         22   -1    0    0    0    0 -0.00000000000E+00 -0.00000000000E+00 -0.11196869303E+01  0.11196869303E+01  0.00000000000E+00 0. -1.
          4    1    1    2  501    0  0.26272015923E+00  0.29258752971E+01  0.21598160948E+01  0.36461724725E+01  0.00000000000E+00 0.  1.
         -4    1    1    2    0  501 -0.26272015923E+00 -0.29258752971E+01  0.53536159454E+01  0.61066334282E+01  0.00000000000E+00 0. -1.
<mgrwt>
<rscale>  0 0.29376467E+01</rscale>
<asrwt>0</asrwt>
<pdfrwt beam="1">0</pdfrwt>
<pdfrwt beam="2">0</pdfrwt>
<totfact> 0.16653114E+12</totfact>
</mgrwt>
</event>
<event>
 4    2  0.2130683E+006  0.2027904E+01  0.7546771E-02  0.2962141E+00
         22   -1    0    0    0    0  0.00000000000E+00  0.00000000000E+00  0.38392913938E+01  0.38392913938E+01  0.00000000000E+00 0. -1.
         22   -1    0    0    0    0 -0.00000000000E+00 -0.00000000000E+00 -0.12646909749E+01  0.12646909749E+01  0.00000000000E+00 0.  1.
          4    1    1    2  501    0  0.48397035135E+00  0.19693059859E+01  0.22856713309E+01  0.30555992539E+01  0.00000000000E+00 0. -1.
         -4    1    1    2    0  501 -0.48397035135E+00 -0.19693059859E+01  0.28892908800E+00  0.20483831148E+01  0.00000000000E+00 0.  1.
<mgrwt>
<rscale>  0 0.20279037E+01</rscale>
<asrwt>0</asrwt>
<pdfrwt beam="1">0</pdfrwt>
<pdfrwt beam="2">0</pdfrwt>
<totfact> 0.37965530E+12</totfact>
</mgrwt>
</event>
<event>
 4    2  0.2130683E+006  0.2046775E+01  0.7546771E-02  0.2949850E+00
         22   -1    0    0    0    0  0.00000000000E+00  0.00000000000E+00  0.23255118523E+02  0.23255118523E+02  0.00000000000E+00 0.  1.
         22   -1    0    0    0    0 -0.00000000000E+00 -0.00000000000E+00 -0.63276772739E+00  0.63276772739E+00  0.00000000000E+00 0. -1.
          4    1    1    2  501    0 -0.12217672174E+01 -0.16421247404E+01  0.12094900156E+01  0.23774261070E+01  0.00000000000E+00 0. -1.
         -4    1    1    2    0  501  0.12217672174E+01  0.16421247404E+01  0.21412860780E+02  0.21510460144E+02  0.00000000000E+00 0.  1.
<mgrwt>
<rscale>  0 0.20467752E+01</rscale>
<asrwt>0</asrwt>
<pdfrwt beam="1">0</pdfrwt>
<pdfrwt beam="2">0</pdfrwt>
<totfact> 0.94392352E+11</totfact>
</mgrwt>
</event>
<event>
 4    2  0.2130683E+006  0.2720900E+01  0.7546771E-02  0.2618488E+00
         22   -1    0    0    0    0  0.00000000000E+00  0.00000000000E+00  0.54724965537E+01  0.54724965537E+01  0.00000000000E+00 0.  1.
         22   -1    0    0    0    0 -0.00000000000E+00 -0.00000000000E+00 -0.16589652867E+01  0.16589652867E+01  0.00000000000E+00 0. -1.
          4    1    1    2  501    0  0.15009202408E+01  0.22694789358E+01  0.37499210795E+00  0.27466188833E+01  0.00000000000E+00 0. -1.
         -4    1    1    2    0  501 -0.15009202408E+01 -0.22694789358E+01  0.34385391590E+01  0.43848429570E+01  0.00000000000E+00 0.  1.
<mgrwt>
<rscale>  0 0.27208999E+01</rscale>
<asrwt>0</asrwt>
<pdfrwt beam="1">0</pdfrwt>
<pdfrwt beam="2">0</pdfrwt>
<totfact> 0.18284983E+12</totfact>
</mgrwt>
</event>
<event>
 4    2  0.2130683E+006  0.2261458E+01  0.7546771E-02  0.2824054E+00
         22   -1    0    0    0    0  0.00000000000E+00  0.00000000000E+00  0.10773339173E+00  0.10773339173E+00  0.00000000000E+00 0.  1.
         22   -1    0    0    0    0 -0.00000000000E+00 -0.00000000000E+00 -0.11014247126E+03  0.11014247126E+03  0.00000000000E+00 0. -1.
          4    1    1    2  501    0  0.22189216632E+01 -0.43655546247E+00 -0.96599574260E+02  0.96626041734E+02  0.00000000000E+00 0. -1.
         -4    1    1    2    0  501 -0.22189216632E+01  0.43655546247E+00 -0.13435163604E+02  0.13624162913E+02  0.00000000000E+00 0.  1.
<mgrwt>
<rscale>  0 0.22614584E+01</rscale>
<asrwt>0</asrwt>
<pdfrwt beam="1">0</pdfrwt>
<pdfrwt beam="2">0</pdfrwt>
<totfact> 0.87047592E+11</totfact>
</mgrwt>
</event>
<event>
 4    2  0.2130683E+006  0.2729062E+01  0.7546771E-02  0.2615418E+00
         22   -1    0    0    0    0  0.00000000000E+00  0.00000000000E+00  0.25030689087E+00  0.25030689087E+00  0.00000000000E+00 0.  1.
         22   -1    0    0    0    0 -0.00000000000E+00 -0.00000000000E+00 -0.55681651204E+02  0.55681651204E+02  0.00000000000E+00 0. -1.
          4    1    1    2  501    0 -0.17244678299E+01 -0.21151805771E+01 -0.46798847749E+02  0.46878352454E+02  0.00000000000E+00 0. -1.
         -4    1    1    2    0  501  0.17244678299E+01  0.21151805771E+01 -0.86324965637E+01  0.90536056404E+01  0.00000000000E+00 0.  1.
<mgrwt>
<rscale>  0 0.27290618E+01</rscale>
<asrwt>0</asrwt>
<pdfrwt beam="1">0</pdfrwt>
<pdfrwt beam="2">0</pdfrwt>
<totfact> 0.86917780E+11</totfact>
</mgrwt>
</event>
<event>
 4    2  0.2130683E+006  0.2434788E+01  0.7546771E-02  0.2737997E+00
         22   -1    0    0    0    0  0.00000000000E+00  0.00000000000E+00  0.52248238839E+01  0.52248238839E+01  0.00000000000E+00 0.  1.
         22   -1    0    0    0    0 -0.00000000000E+00 -0.00000000000E+00 -0.38896725161E+01  0.38896725161E+01  0.00000000000E+00 0. -1.
          4    1    1    2  501    0 -0.84842628418E+00  0.22821841791E+01 -0.31678279196E+01  0.39954130594E+01  0.00000000000E+00 0. -1.
         -4    1    1    2    0  501  0.84842628418E+00 -0.22821841791E+01  0.45029792874E+01  0.51190833407E+01  0.00000000000E+00 0.  1.
<mgrwt>
<rscale>  0 0.24347878E+01</rscale>
<asrwt>0</asrwt>
<pdfrwt beam="1">0</pdfrwt>
<pdfrwt beam="2">0</pdfrwt>
<totfact> 0.71651292E+11</totfact>
</mgrwt>
</event>
<event>
 4    2  0.2130683E+006  0.2133240E+01  0.7546771E-02  0.2896249E+00
         22   -1    0    0    0    0  0.00000000000E+00  0.00000000000E+00  0.21299713217E+01  0.21299713217E+01  0.00000000000E+00 0.  1.
         22   -1    0    0    0    0 -0.00000000000E+00 -0.00000000000E+00 -0.10643802391E+02  0.10643802391E+02  0.00000000000E+00 0. -1.
          4    1    1    2  501    0  0.10086665059E+01  0.18797083587E+01 -0.99669196568E+01  0.10192654172E+02  0.00000000000E+00 0. -1.
         -4    1    1    2    0  501 -0.10086665059E+01 -0.18797083587E+01  0.14530885879E+01  0.25811195397E+01  0.00000000000E+00 0.  1.
<mgrwt>
<rscale>  0 0.21332397E+01</rscale>
<asrwt>0</asrwt>
<pdfrwt beam="1">0</pdfrwt>
<pdfrwt beam="2">0</pdfrwt>
<totfact> 0.61653526E+11</totfact>
</mgrwt>
</event>
<event>
 4    2  0.2130683E+006  0.2795791E+01  0.7546771E-02  0.2590937E+00
         22   -1    0    0    0    0  0.00000000000E+00  0.00000000000E+00  0.10610864425E+01  0.10610864425E+01  0.00000000000E+00 0. -1.
         22   -1    0    0    0    0 -0.00000000000E+00 -0.00000000000E+00 -0.27386843701E+02  0.27386843701E+02  0.00000000000E+00 0.  1.
          4    1    1    2  501    0  0.41822491219E+00  0.27643323321E+01 -0.25324344918E+02  0.25478204231E+02  0.00000000000E+00 0.  1.
         -4    1    1    2    0  501 -0.41822491219E+00 -0.27643323321E+01 -0.10014123407E+01  0.29697259125E+01  0.00000000000E+00 0. -1.
<mgrwt>
<rscale>  0 0.27957906E+01</rscale>
<asrwt>0</asrwt>
<pdfrwt beam="1">0</pdfrwt>
<pdfrwt beam="2">0</pdfrwt>
<totfact> 0.42641907E+11</totfact>
</mgrwt>
</event>
<event>
 4    2  0.2130683E+006  0.2291160E+01  0.7546771E-02  0.2808434E+00
         22   -1    0    0    0    0  0.00000000000E+00  0.00000000000E+00  0.28209800015E+00  0.28209800015E+00  0.00000000000E+00 0.  1.
         22   -1    0    0    0    0 -0.00000000000E+00 -0.00000000000E+00 -0.47636346176E+02  0.47636346176E+02  0.00000000000E+00 0. -1.
          4    1    1    2  501    0  0.22703874250E+00  0.22798832912E+01 -0.42380115026E+02  0.42442002356E+02  0.00000000000E+00 0. -1.
         -4    1    1    2    0  501 -0.22703874250E+00 -0.22798832912E+01 -0.49741331503E+01  0.54764418201E+01  0.00000000000E+00 0.  1.
<mgrwt>
<rscale>  0 0.22911601E+01</rscale>
<asrwt>0</asrwt>
<pdfrwt beam="1">0</pdfrwt>
<pdfrwt beam="2">0</pdfrwt>
<totfact> 0.93444181E+11</totfact>
</mgrwt>
</event>
<event>
 4    2  0.2130683E+006  0.2644737E+01  0.7546771E-02  0.2647966E+00
         22   -1    0    0    0    0  0.00000000000E+00  0.00000000000E+00  0.39387679596E+00  0.39387679596E+00  0.00000000000E+00 0.  1.
         22   -1    0    0    0    0 -0.00000000000E+00 -0.00000000000E+00 -0.40313371566E+02  0.40313371566E+02  0.00000000000E+00 0. -1.
          4    1    1    2  501    0  0.13920860271E+01 -0.22487174439E+01 -0.35184072168E+02  0.35283332722E+02  0.00000000000E+00 0. -1.
         -4    1    1    2    0  501 -0.13920860271E+01  0.22487174439E+01 -0.47354226020E+01  0.54239156399E+01  0.00000000000E+00 0.  1.
<mgrwt>
<rscale>  0 0.26447370E+01</rscale>
<asrwt>0</asrwt>
<pdfrwt beam="1">0</pdfrwt>
<pdfrwt beam="2">0</pdfrwt>
<totfact> 0.79889422E+11</totfact>
</mgrwt>
</event>
<event>
 4    2  0.2130683E+006  0.2041208E+01  0.7546771E-02  0.2953453E+00
         22   -1    0    0    0    0  0.00000000000E+00  0.00000000000E+00  0.67995860980E+00  0.67995860980E+00  0.00000000000E+00 0. -1.
         22   -1    0    0    0    0 -0.00000000000E+00 -0.00000000000E+00 -0.74543523431E+01  0.74543523431E+01  0.00000000000E+00 0.  1.
          4    1    1    2  501    0  0.11840641843E+01  0.16626851221E+01 -0.51030378378E+01  0.54961372783E+01  0.00000000000E+00 0.  1.
         -4    1    1    2    0  501 -0.11840641843E+01 -0.16626851221E+01 -0.16713558955E+01  0.26381736746E+01  0.00000000000E+00 0. -1.
<mgrwt>
<rscale>  0 0.20412079E+01</rscale>
<asrwt>0</asrwt>
<pdfrwt beam="1">0</pdfrwt>
<pdfrwt beam="2">0</pdfrwt>
<totfact> 0.35063241E+12</totfact>
</mgrwt>
</event>
<event>
 4    2  0.2130683E+006  0.3182149E+01  0.7546771E-02  0.2467575E+00
         22   -1    0    0    0    0  0.00000000000E+00  0.00000000000E+00  0.62143926043E+02  0.62143926043E+02  0.00000000000E+00 0.  1.
         22   -1    0    0    0    0 -0.00000000000E+00 -0.00000000000E+00 -0.36121345309E+00  0.36121345309E+00  0.00000000000E+00 0. -1.
          4    1    1    2  501    0  0.88088727943E-01  0.31809293360E+01  0.77371407415E+01  0.83659678411E+01  0.00000000000E+00 0. -1.
         -4    1    1    2    0  501 -0.88088727943E-01 -0.31809293360E+01  0.54045571848E+02  0.54139171655E+02  0.00000000000E+00 0.  1.
<mgrwt>
<rscale>  0 0.31821488E+01</rscale>
<asrwt>0</asrwt>
<pdfrwt beam="1">0</pdfrwt>
<pdfrwt beam="2">0</pdfrwt>
<totfact> 0.49749008E+11</totfact>
</mgrwt>
</event>
<event>
 4    2  0.2130683E+006  0.3453061E+01  0.7546771E-02  0.2395875E+00
         22   -1    0    0    0    0  0.00000000000E+00  0.00000000000E+00  0.22718740961E+02  0.22718740961E+02  0.00000000000E+00 0.  1.
         22   -1    0    0    0    0 -0.00000000000E+00 -0.00000000000E+00 -0.54134687500E+00  0.54134687500E+00  0.00000000000E+00 0. -1.
          4    1    1    2  501    0 -0.34461516080E+01  0.21832926993E+00  0.90576515938E+01  0.96935381038E+01  0.00000000000E+00 0.  1.
         -4    1    1    2    0  501  0.34461516080E+01 -0.21832926993E+00  0.13119742492E+02  0.13566549732E+02  0.00000000000E+00 0. -1.
<mgrwt>
<rscale>  0 0.34530608E+01</rscale>
<asrwt>0</asrwt>
<pdfrwt beam="1">0</pdfrwt>
<pdfrwt beam="2">0</pdfrwt>
<totfact> 0.11599138E+12</totfact>
</mgrwt>
</event>
<event>
 4    2  0.2130683E+006  0.2004855E+01  0.7546771E-02  0.2977458E+00
         22   -1    0    0    0    0  0.00000000000E+00  0.00000000000E+00  0.78844117227E-01  0.78844117227E-01  0.00000000000E+00 0.  1.
         22   -1    0    0    0    0 -0.00000000000E+00 -0.00000000000E+00 -0.52760783637E+02  0.52760783637E+02  0.00000000000E+00 0. -1.
          4    1    1    2  501    0 -0.58490632111E+00 -0.19176362577E+01 -0.21486694868E+02  0.21580025500E+02  0.00000000000E+00 0.  1.
         -4    1    1    2    0  501  0.58490632111E+00  0.19176362577E+01 -0.31195244652E+02  0.31259602255E+02  0.00000000000E+00 0. -1.
<mgrwt>
<rscale>  0 0.20048552E+01</rscale>
<asrwt>0</asrwt>
<pdfrwt beam="1">0</pdfrwt>
<pdfrwt beam="2">0</pdfrwt>
<totfact> 0.33696788E+12</totfact>
</mgrwt>
</event>
<event>
 4    2  0.2130683E+006  0.2659204E+01  0.7546771E-02  0.2642248E+00
         22   -1    0    0    0    0  0.00000000000E+00  0.00000000000E+00  0.75993712326E+01  0.75993712326E+01  0.00000000000E+00 0. -1.
         22   -1    0    0    0    0 -0.00000000000E+00 -0.00000000000E+00 -0.97978422666E+00  0.97978422666E+00  0.00000000000E+00 0.  1.
          4    1    1    2  501    0  0.25835702206E+01 -0.62970701860E+00  0.42716619533E+01  0.50317454087E+01  0.00000000000E+00 0.  1.
         -4    1    1    2    0  501 -0.25835702206E+01  0.62970701860E+00  0.23479250526E+01  0.35474100505E+01  0.00000000000E+00 0. -1.
<mgrwt>
<rscale>  0 0.26592040E+01</rscale>
<asrwt>0</asrwt>
<pdfrwt beam="1">0</pdfrwt>
<pdfrwt beam="2">0</pdfrwt>
<totfact> 0.22610808E+12</totfact>
</mgrwt>
</event>
<event>
 4    2  0.2130683E+006  0.2307979E+01  0.7546771E-02  0.2799758E+00
         22   -1    0    0    0    0  0.00000000000E+00  0.00000000000E+00  0.14764447792E+01  0.14764447792E+01  0.00000000000E+00 0.  1.
         22   -1    0    0    0    0 -0.00000000000E+00 -0.00000000000E+00 -0.74239213095E+01  0.74239213095E+01  0.00000000000E+00 0. -1.
          4    1    1    2  501    0  0.17950078134E+01 -0.14507631407E+01 -0.61643237270E+01  0.65822225541E+01  0.00000000000E+00 0. -1.
         -4    1    1    2    0  501 -0.17950078134E+01  0.14507631407E+01  0.21684719668E+00  0.23181435346E+01  0.00000000000E+00 0.  1.
<mgrwt>
<rscale>  0 0.23079789E+01</rscale>
<asrwt>0</asrwt>
<pdfrwt beam="1">0</pdfrwt>
<pdfrwt beam="2">0</pdfrwt>
<totfact> 0.14534781E+12</totfact>
</mgrwt>
</event>
<event>
 4    2  0.2130683E+006  0.2520891E+01  0.7546771E-02  0.2699391E+00
         22   -1    0    0    0    0  0.00000000000E+00  0.00000000000E+00  0.38300402824E+01  0.38300402824E+01  0.00000000000E+00 0. -1.
         22   -1    0    0    0    0 -0.00000000000E+00 -0.00000000000E+00 -0.46831746873E+01  0.46831746873E+01  0.00000000000E+00 0.  1.
          4    1    1    2  501    0  0.19381925317E+01 -0.16119248934E+01  0.29938637411E+01  0.39138360022E+01  0.00000000000E+00 0. -1.
         -4    1    1    2    0  501 -0.19381925317E+01  0.16119248934E+01 -0.38469981460E+01  0.45993789676E+01  0.00000000000E+00 0.  1.
<mgrwt>
<rscale>  0 0.25208911E+01</rscale>
<asrwt>0</asrwt>
<pdfrwt beam="1">0</pdfrwt>
<pdfrwt beam="2">0</pdfrwt>
<totfact> 0.83056905E+11</totfact>
</mgrwt>
</event>
<event>
 4    2  0.2130683E+006  0.2625475E+01  0.7546771E-02  0.2655670E+00
         22   -1    0    0    0    0  0.00000000000E+00  0.00000000000E+00  0.41603994806E+00  0.41603994806E+00  0.00000000000E+00 0.  1.
         22   -1    0    0    0    0 -0.00000000000E+00 -0.00000000000E+00 -0.16749404057E+02  0.16749404057E+02  0.00000000000E+00 0. -1.
          4    1    1    2  501    0 -0.43256171475E+00  0.25895964207E+01 -0.90588793781E+01  0.94316708406E+01  0.00000000000E+00 0. -1.
         -4    1    1    2    0  501  0.43256171475E+00 -0.25895964207E+01 -0.72744847305E+01  0.77337731641E+01  0.00000000000E+00 0.  1.
<mgrwt>
<rscale>  0 0.26254751E+01</rscale>
<asrwt>0</asrwt>
<pdfrwt beam="1">0</pdfrwt>
<pdfrwt beam="2">0</pdfrwt>
<totfact> 0.22820947E+12</totfact>
</mgrwt>
</event>
<event>
 4    2  0.2130683E+006  0.2524646E+01  0.7546771E-02  0.2697763E+00
         22   -1    0    0    0    0  0.00000000000E+00  0.00000000000E+00  0.17723876562E+02  0.17723876562E+02  0.00000000000E+00 0.  1.
         22   -1    0    0    0    0 -0.00000000000E+00 -0.00000000000E+00 -0.18230654709E+01  0.18230654709E+01  0.00000000000E+00 0. -1.
          4    1    1    2  501    0 -0.95735873642E+00  0.23360873195E+01 -0.80620718398E+00  0.26502471089E+01  0.00000000000E+00 0. -1.
         -4    1    1    2    0  501  0.95735873642E+00 -0.23360873195E+01  0.16707018275E+02  0.16896694924E+02  0.00000000000E+00 0.  1.
<mgrwt>
<rscale>  0 0.25246465E+01</rscale>
<asrwt>0</asrwt>
<pdfrwt beam="1">0</pdfrwt>
<pdfrwt beam="2">0</pdfrwt>
<totfact> 0.39500207E+11</totfact>
</mgrwt>
</event>
<event>
 4    2  0.2130683E+006  0.2568879E+01  0.7546771E-02  0.2678921E+00
         22   -1    0    0    0    0  0.00000000000E+00  0.00000000000E+00  0.99186546693E+00  0.99186546693E+00  0.00000000000E+00 0.  1.
         22   -1    0    0    0    0 -0.00000000000E+00 -0.00000000000E+00 -0.10424966397E+02  0.10424966397E+02  0.00000000000E+00 0. -1.
          4    1    1    2  501    0  0.13350401608E+01  0.21947225382E+01 -0.81501306410E+01  0.85453945910E+01  0.00000000000E+00 0. -1.
         -4    1    1    2    0  501 -0.13350401608E+01 -0.21947225382E+01 -0.12829702894E+01  0.28714372732E+01  0.00000000000E+00 0.  1.
<mgrwt>
<rscale>  0 0.25688790E+01</rscale>
<asrwt>0</asrwt>
<pdfrwt beam="1">0</pdfrwt>
<pdfrwt beam="2">0</pdfrwt>
<totfact> 0.15228912E+12</totfact>
</mgrwt>
</event>
<event>
 4    2  0.2130683E+006  0.2679806E+01  0.7546771E-02  0.2634202E+00
         22   -1    0    0    0    0  0.00000000000E+00  0.00000000000E+00  0.37594835329E+01  0.37594835329E+01  0.00000000000E+00 0.  1.
         22   -1    0    0    0    0 -0.00000000000E+00 -0.00000000000E+00 -0.28388865282E+01  0.28388865282E+01  0.00000000000E+00 0. -1.
          4    1    1    2  501    0  0.48075148147E+00 -0.26363299915E+01  0.23472802689E+01  0.35624545571E+01  0.00000000000E+00 0.  1.
         -4    1    1    2    0  501 -0.48075148147E+00  0.26363299915E+01 -0.14266832641E+01  0.30359155039E+01  0.00000000000E+00 0. -1.
<mgrwt>
<rscale>  0 0.26798056E+01</rscale>
<asrwt>0</asrwt>
<pdfrwt beam="1">0</pdfrwt>
<pdfrwt beam="2">0</pdfrwt>
<totfact> 0.15278802E+12</totfact>
</mgrwt>
</event>
<event>
 4    2  0.2130683E+006  0.2406625E+01  0.7546771E-02  0.2751184E+00
         22   -1    0    0    0    0  0.00000000000E+00  0.00000000000E+00  0.99226835591E+00  0.99226835591E+00  0.00000000000E+00 0.  1.
         22   -1    0    0    0    0 -0.00000000000E+00 -0.00000000000E+00 -0.16019562245E+02  0.16019562245E+02  0.00000000000E+00 0. -1.
          4    1    1    2  501    0  0.20160957520E+01  0.13142302797E+01 -0.14295132649E+02  0.14496298174E+02  0.00000000000E+00 0. -1.
         -4    1    1    2    0  501 -0.20160957520E+01 -0.13142302797E+01 -0.73216124074E+00  0.25155324271E+01  0.00000000000E+00 0.  1.
<mgrwt>
<rscale>  0 0.24066249E+01</rscale>
<asrwt>0</asrwt>
<pdfrwt beam="1">0</pdfrwt>
<pdfrwt beam="2">0</pdfrwt>
<totfact> 0.90002791E+11</totfact>
</mgrwt>
</event>
<event>
 4    2  0.2130683E+006  0.3258177E+01  0.7546771E-02  0.2446394E+00
         22   -1    0    0    0    0  0.00000000000E+00  0.00000000000E+00  0.41098414703E+01  0.41098414703E+01  0.00000000000E+00 0.  1.
         22   -1    0    0    0    0 -0.00000000000E+00 -0.00000000000E+00 -0.11180509164E+02  0.11180509164E+02  0.00000000000E+00 0. -1.
          4    1    1    2  501    0  0.29150014737E+01 -0.14555010772E+01 -0.10239472744E+02  0.10745348717E+02  0.00000000000E+00 0. -1.
         -4    1    1    2    0  501 -0.29150014737E+01  0.14555010772E+01  0.31688050504E+01  0.45450019170E+01  0.00000000000E+00 0.  1.
<mgrwt>
<rscale>  0 0.32581769E+01</rscale>
<asrwt>0</asrwt>
<pdfrwt beam="1">0</pdfrwt>
<pdfrwt beam="2">0</pdfrwt>
<totfact> 0.26955225E+11</totfact>
</mgrwt>
</event>
<event>
 4    2  0.2130683E+006  0.2410687E+01  0.7546771E-02  0.2749265E+00
         22   -1    0    0    0    0  0.00000000000E+00  0.00000000000E+00  0.10304585286E+01  0.10304585286E+01  0.00000000000E+00 0. -1.
         22   -1    0    0    0    0 -0.00000000000E+00 -0.00000000000E+00 -0.80800625153E+01  0.80800625153E+01  0.00000000000E+00 0.  1.
          4    1    1    2  501    0 -0.10512092882E-01  0.24106638077E+01 -0.60282511266E+01  0.64923972571E+01  0.00000000000E+00 0. -1.
         -4    1    1    2    0  501  0.10512092882E-01 -0.24106638077E+01 -0.10213528600E+01  0.26181237868E+01  0.00000000000E+00 0.  1.
<mgrwt>
<rscale>  0 0.24106867E+01</rscale>
<asrwt>0</asrwt>
<pdfrwt beam="1">0</pdfrwt>
<pdfrwt beam="2">0</pdfrwt>
<totfact> 0.19829734E+12</totfact>
</mgrwt>
</event>
<event>
 4    2  0.2130683E+006  0.6318209E+01  0.7546771E-02  0.1992273E+00
         22   -1    0    0    0    0  0.00000000000E+00  0.00000000000E+00  0.56285083302E+02  0.56285083302E+02  0.00000000000E+00 0.  1.
         22   -1    0    0    0    0 -0.00000000000E+00 -0.00000000000E+00 -0.11618134489E+01  0.11618134489E+01  0.00000000000E+00 0. -1.
          4    1    1    2  501    0  0.63100139877E+01 -0.32169282373E+00  0.96344622022E+01  0.11521398558E+02  0.00000000000E+00 0. -1.
         -4    1    1    2    0  501 -0.63100139877E+01  0.32169282373E+00  0.45488807651E+02  0.45925498193E+02  0.00000000000E+00 0.  1.
<mgrwt>
<rscale>  0 0.63182088E+01</rscale>
<asrwt>0</asrwt>
<pdfrwt beam="1">0</pdfrwt>
<pdfrwt beam="2">0</pdfrwt>
<totfact> 0.15098107E+11</totfact>
</mgrwt>
</event>
<event>
 4    2  0.2130683E+006  0.2625751E+01  0.7546771E-02  0.2655559E+00
         22   -1    0    0    0    0  0.00000000000E+00  0.00000000000E+00  0.44942798708E+01  0.44942798708E+01  0.00000000000E+00 0.  1.
         22   -1    0    0    0    0 -0.00000000000E+00 -0.00000000000E+00 -0.17107165516E+01  0.17107165516E+01  0.00000000000E+00 0. -1.
          4    1    1    2  501    0  0.18352266064E+01 -0.18779011172E+01  0.39484617036E+00  0.26552726416E+01  0.00000000000E+00 0.  1.
         -4    1    1    2    0  501 -0.18352266064E+01  0.18779011172E+01  0.23887171488E+01  0.35497237808E+01  0.00000000000E+00 0. -1.
<mgrwt>
<rscale>  0 0.26257512E+01</rscale>
<asrwt>0</asrwt>
<pdfrwt beam="1">0</pdfrwt>
<pdfrwt beam="2">0</pdfrwt>
<totfact> 0.22281620E+12</totfact>
</mgrwt>
</event>
<event>
 4    2  0.2130683E+006  0.3700455E+01  0.7546771E-02  0.2338491E+00
         22   -1    0    0    0    0  0.00000000000E+00  0.00000000000E+00  0.28339807407E+02  0.28339807407E+02  0.00000000000E+00 0.  1.
         22   -1    0    0    0    0 -0.00000000000E+00 -0.00000000000E+00 -0.92257804343E+00  0.92257804343E+00  0.00000000000E+00 0. -1.
          4    1    1    2  501    0  0.12835791842E+01 -0.34707047953E+01  0.36113252208E+01  0.51705935006E+01  0.00000000000E+00 0. -1.
         -4    1    1    2    0  501 -0.12835791842E+01  0.34707047953E+01  0.23805904143E+02  0.24091791950E+02  0.00000000000E+00 0.  1.
<mgrwt>
<rscale>  0 0.37004550E+01</rscale>
<asrwt>0</asrwt>
<pdfrwt beam="1">0</pdfrwt>
<pdfrwt beam="2">0</pdfrwt>
<totfact> 0.47901709E+11</totfact>
</mgrwt>
</event>
<event>
 4    2  0.2130683E+006  0.6021748E+01  0.7546771E-02  0.2017743E+00
         22   -1    0    0    0    0  0.00000000000E+00  0.00000000000E+00  0.46003214158E+02  0.46003214158E+02  0.00000000000E+00 0.  1.
         22   -1    0    0    0    0 -0.00000000000E+00 -0.00000000000E+00 -0.17574731012E+01  0.17574731012E+01  0.00000000000E+00 0. -1.
          4    1    1    2  501    0 -0.55506714756E+01 -0.23348442425E+01  0.43886974861E+01  0.74513164671E+01  0.00000000000E+00 0. -1.
         -4    1    1    2    0  501  0.55506714756E+01  0.23348442425E+01  0.39857043571E+02  0.40309370792E+02  0.00000000000E+00 0.  1.
<mgrwt>
<rscale>  0 0.60217482E+01</rscale>
<asrwt>0</asrwt>
<pdfrwt beam="1">0</pdfrwt>
<pdfrwt beam="2">0</pdfrwt>
<totfact> 0.12245876E+11</totfact>
</mgrwt>
</event>
<event>
 4    2  0.2130683E+006  0.2186391E+01  0.7546771E-02  0.2865336E+00
         22   -1    0    0    0    0  0.00000000000E+00  0.00000000000E+00  0.25653144994E+01  0.25653144994E+01  0.00000000000E+00 0.  1.
         22   -1    0    0    0    0 -0.00000000000E+00 -0.00000000000E+00 -0.87591272051E+01  0.87591272051E+01  0.00000000000E+00 0. -1.
          4    1    1    2  501    0 -0.88736497443E+00 -0.19982215314E+01 -0.81208552239E+01  0.84100294562E+01  0.00000000000E+00 0. -1.
         -4    1    1    2    0  501  0.88736497443E+00  0.19982215314E+01  0.19270425182E+01  0.29144122483E+01  0.00000000000E+00 0.  1.
<mgrwt>
<rscale>  0 0.21863911E+01</rscale>
<asrwt>0</asrwt>
<pdfrwt beam="1">0</pdfrwt>
<pdfrwt beam="2">0</pdfrwt>
<totfact> 0.62880531E+11</totfact>
</mgrwt>
</event>
<event>
 4    2  0.2130683E+006  0.2568598E+01  0.7546771E-02  0.2679039E+00
         22   -1    0    0    0    0  0.00000000000E+00  0.00000000000E+00  0.10073055960E+01  0.10073055960E+01  0.00000000000E+00 0. -1.
         22   -1    0    0    0    0 -0.00000000000E+00 -0.00000000000E+00 -0.13383656049E+02  0.13383656049E+02  0.00000000000E+00 0.  1.
          4    1    1    2  501    0 -0.10850321401E+01 -0.23281751410E+01 -0.11329842397E+02  0.11617358692E+02  0.00000000000E+00 0.  1.
         -4    1    1    2    0  501  0.10850321401E+01  0.23281751410E+01 -0.10465080563E+01  0.27736029536E+01  0.00000000000E+00 0. -1.
<mgrwt>
<rscale>  0 0.25685977E+01</rscale>
<asrwt>0</asrwt>
<pdfrwt beam="1">0</pdfrwt>
<pdfrwt beam="2">0</pdfrwt>
<totfact> 0.11035373E+12</totfact>
</mgrwt>
</event>
<event>
 4    2  0.2130683E+006  0.2239181E+01  0.7546771E-02  0.2836030E+00
         22   -1    0    0    0    0  0.00000000000E+00  0.00000000000E+00  0.36426065249E+01  0.36426065249E+01  0.00000000000E+00 0.  1.
         22   -1    0    0    0    0 -0.00000000000E+00 -0.00000000000E+00 -0.14381407345E+01  0.14381407345E+01  0.00000000000E+00 0. -1.
          4    1    1    2  501    0 -0.19985912921E+01 -0.10097338618E+01  0.16283048397E+01  0.27686289523E+01  0.00000000000E+00 0.  1.
         -4    1    1    2    0  501  0.19985912921E+01  0.10097338618E+01  0.57616095079E+00  0.23121183071E+01  0.00000000000E+00 0. -1.
<mgrwt>
<rscale>  0 0.22391806E+01</rscale>
<asrwt>0</asrwt>
<pdfrwt beam="1">0</pdfrwt>
<pdfrwt beam="2">0</pdfrwt>
<totfact> 0.34845612E+12</totfact>
</mgrwt>
</event>
<event>
 4    2  0.2130683E+006  0.2981891E+01  0.7546771E-02  0.2527934E+00
         22   -1    0    0    0    0  0.00000000000E+00  0.00000000000E+00  0.98032333609E+01  0.98032333609E+01  0.00000000000E+00 0. -1.
         22   -1    0    0    0    0 -0.00000000000E+00 -0.00000000000E+00 -0.92105996678E+00  0.92105996678E+00  0.00000000000E+00 0.  1.
          4    1    1    2  501    0  0.20620841931E+00 -0.29747527664E+01  0.37789295904E+01  0.48137287816E+01  0.00000000000E+00 0.  1.
         -4    1    1    2    0  501 -0.20620841931E+00  0.29747527664E+01  0.51032438037E+01  0.59105645461E+01  0.00000000000E+00 0. -1.
<mgrwt>
<rscale>  0 0.29818913E+01</rscale>
<asrwt>0</asrwt>
<pdfrwt beam="1">0</pdfrwt>
<pdfrwt beam="2">0</pdfrwt>
<totfact> 0.17853698E+12</totfact>
</mgrwt>
</event>
<event>
 4    2  0.2130683E+006  0.2299189E+01  0.7546771E-02  0.2804277E+00
         22   -1    0    0    0    0  0.00000000000E+00  0.00000000000E+00  0.22520451471E+01  0.22520451471E+01  0.00000000000E+00 0. -1.
         22   -1    0    0    0    0 -0.00000000000E+00 -0.00000000000E+00 -0.28756540864E+01  0.28756540864E+01  0.00000000000E+00 0.  1.
          4    1    1    2  501    0 -0.15064943517E+01  0.17368776427E+01 -0.14107566727E+01  0.26974995027E+01  0.00000000000E+00 0.  1.
         -4    1    1    2    0  501  0.15064943517E+01 -0.17368776427E+01  0.78714773334E+00  0.24301997308E+01  0.00000000000E+00 0. -1.
<mgrwt>
<rscale>  0 0.22991888E+01</rscale>
<asrwt>0</asrwt>
<pdfrwt beam="1">0</pdfrwt>
<pdfrwt beam="2">0</pdfrwt>
<totfact> 0.27375876E+12</totfact>
</mgrwt>
</event>
<event>
 4    2  0.2130683E+006  0.2404166E+01  0.7546771E-02  0.2752350E+00
         22   -1    0    0    0    0  0.00000000000E+00  0.00000000000E+00  0.17586893243E+02  0.17586893243E+02  0.00000000000E+00 0.  1.
         22   -1    0    0    0    0 -0.00000000000E+00 -0.00000000000E+00 -0.33945331277E+00  0.33945331277E+00  0.00000000000E+00 0. -1.
          4    1    1    2  501    0  0.13119255859E+01  0.20146623480E+01  0.10222387079E+02  0.10501295668E+02  0.00000000000E+00 0. -1.
         -4    1    1    2    0  501 -0.13119255859E+01 -0.20146623480E+01  0.70250528512E+01  0.74250508875E+01  0.00000000000E+00 0.  1.
<mgrwt>
<rscale>  0 0.24041658E+01</rscale>
<asrwt>0</asrwt>
<pdfrwt beam="1">0</pdfrwt>
<pdfrwt beam="2">0</pdfrwt>
<totfact> 0.27006048E+12</totfact>
</mgrwt>
</event>
<event>
 4    2  0.2130683E+006  0.2012048E+01  0.7546771E-02  0.2972641E+00
         22   -1    0    0    0    0  0.00000000000E+00  0.00000000000E+00  0.75239665972E+00  0.75239665972E+00  0.00000000000E+00 0. -1.
         22   -1    0    0    0    0 -0.00000000000E+00 -0.00000000000E+00 -0.57079963626E+01  0.57079963626E+01  0.00000000000E+00 0.  1.
          4    1    1    2  501    0 -0.20120432623E+01  0.43664384343E-02 -0.32514263769E+01  0.38236253268E+01  0.00000000000E+00 0.  1.
         -4    1    1    2    0  501  0.20120432623E+01 -0.43664384343E-02 -0.17041733260E+01  0.26367676955E+01  0.00000000000E+00 0. -1.
<mgrwt>
<rscale>  0 0.20120480E+01</rscale>
<asrwt>0</asrwt>
<pdfrwt beam="1">0</pdfrwt>
<pdfrwt beam="2">0</pdfrwt>
<totfact> 0.42981875E+12</totfact>
</mgrwt>
</event>
<event>
 4    2  0.2130683E+006  0.2076104E+01  0.7546771E-02  0.2931182E+00
         22   -1    0    0    0    0  0.00000000000E+00  0.00000000000E+00  0.98422659978E+02  0.98422659978E+02  0.00000000000E+00 0. -1.
         22   -1    0    0    0    0 -0.00000000000E+00 -0.00000000000E+00 -0.57937759601E-01  0.57937759601E-01  0.00000000000E+00 0.  1.
          4    1    1    2  501    0 -0.18215829837E+01 -0.99601451692E+00  0.24852489867E+02  0.24939054956E+02  0.00000000000E+00 0.  1.
         -4    1    1    2    0  501  0.18215829837E+01  0.99601451692E+00  0.73512232351E+02  0.73541542782E+02  0.00000000000E+00 0. -1.
<mgrwt>
<rscale>  0 0.20761044E+01</rscale>
<asrwt>0</asrwt>
<pdfrwt beam="1">0</pdfrwt>
<pdfrwt beam="2">0</pdfrwt>
<totfact> 0.20247009E+12</totfact>
</mgrwt>
</event>
<event>
 4    2  0.2130683E+006  0.2040874E+01  0.7546771E-02  0.2953670E+00
         22   -1    0    0    0    0  0.00000000000E+00  0.00000000000E+00  0.86986608761E+00  0.86986608761E+00  0.00000000000E+00 0.  1.
         22   -1    0    0    0    0 -0.00000000000E+00 -0.00000000000E+00 -0.40719299988E+02  0.40719299988E+02  0.00000000000E+00 0. -1.
          4    1    1    2  501    0 -0.77828314682E+00  0.18866483475E+01 -0.39458430206E+02  0.39511174128E+02  0.00000000000E+00 0. -1.
         -4    1    1    2    0  501  0.77828314682E+00 -0.18866483475E+01 -0.39100369382E+00  0.20779919471E+01  0.00000000000E+00 0.  1.
<mgrwt>
<rscale>  0 0.20408740E+01</rscale>
<asrwt>0</asrwt>
<pdfrwt beam="1">0</pdfrwt>
<pdfrwt beam="2">0</pdfrwt>
<totfact> 0.32155617E+11</totfact>
</mgrwt>
</event>
<event>
 4    2  0.2130683E+006  0.2734800E+01  0.7546771E-02  0.2613270E+00
         22   -1    0    0    0    0  0.00000000000E+00  0.00000000000E+00  0.58263901080E+01  0.58263901080E+01  0.00000000000E+00 0.  1.
         22   -1    0    0    0    0 -0.00000000000E+00 -0.00000000000E+00 -0.14999439900E+01  0.14999439900E+01  0.00000000000E+00 0. -1.
          4    1    1    2  501    0  0.16285967792E+01  0.21969987420E+01  0.77222432719E+00  0.28417356233E+01  0.00000000000E+00 0. -1.
         -4    1    1    2    0  501 -0.16285967792E+01 -0.21969987420E+01  0.35542217907E+01  0.44845984747E+01  0.00000000000E+00 0.  1.
<mgrwt>
<rscale>  0 0.27348000E+01</rscale>
<asrwt>0</asrwt>
<pdfrwt beam="1">0</pdfrwt>
<pdfrwt beam="2">0</pdfrwt>
<totfact> 0.19061772E+12</totfact>
</mgrwt>
</event>
<event>
 4    2  0.2130683E+006  0.2042440E+01  0.7546771E-02  0.2952654E+00
         22   -1    0    0    0    0  0.00000000000E+00  0.00000000000E+00  0.13390625195E+02  0.13390625195E+02  0.00000000000E+00 0. -1.
         22   -1    0    0    0    0 -0.00000000000E+00 -0.00000000000E+00 -0.31182680071E+00  0.31182680071E+00  0.00000000000E+00 0.  1.
          4    1    1    2  501    0  0.11479763863E+01 -0.16892935437E+01  0.67512743589E+01  0.70534578704E+01  0.00000000000E+00 0. -1.
         -4    1    1    2    0  501 -0.11479763863E+01  0.16892935437E+01  0.63275240357E+01  0.66489941256E+01  0.00000000000E+00 0.  1.
<mgrwt>
<rscale>  0 0.20424403E+01</rscale>
<asrwt>0</asrwt>
<pdfrwt beam="1">0</pdfrwt>
<pdfrwt beam="2">0</pdfrwt>
<totfact> 0.41557788E+12</totfact>
</mgrwt>
</event>
<event>
 4    2  0.2130683E+006  0.2845547E+01  0.7546771E-02  0.2573363E+00
         22   -1    0    0    0    0  0.00000000000E+00  0.00000000000E+00  0.17923025159E+01  0.17923025159E+01  0.00000000000E+00 0.  1.
         22   -1    0    0    0    0 -0.00000000000E+00 -0.00000000000E+00 -0.45962946254E+01  0.45962946254E+01  0.00000000000E+00 0. -1.
          4    1    1    2  501    0  0.57927429741E+00  0.27859606864E+01 -0.18196244453E+01  0.33775980785E+01  0.00000000000E+00 0. -1.
         -4    1    1    2    0  501 -0.57927429741E+00 -0.27859606864E+01 -0.98436766421E+00  0.30109990628E+01  0.00000000000E+00 0.  1.
<mgrwt>
<rscale>  0 0.28455466E+01</rscale>
<asrwt>0</asrwt>
<pdfrwt beam="1">0</pdfrwt>
<pdfrwt beam="2">0</pdfrwt>
<totfact> 0.20563000E+12</totfact>
</mgrwt>
</event>
<event>
 4    2  0.2130683E+006  0.2983775E+01  0.7546771E-02  0.2527332E+00
         22   -1    0    0    0    0  0.00000000000E+00  0.00000000000E+00  0.47450050138E+01  0.47450050138E+01  0.00000000000E+00 0.  1.
         22   -1    0    0    0    0 -0.00000000000E+00 -0.00000000000E+00 -0.65697720751E+01  0.65697720751E+01  0.00000000000E+00 0. -1.
          4    1    1    2  501    0 -0.10633427946E+00  0.29818796464E+01 -0.56941607270E+01  0.64285596823E+01  0.00000000000E+00 0. -1.
         -4    1    1    2    0  501  0.10633427946E+00 -0.29818796464E+01  0.38693936656E+01  0.48862174066E+01  0.00000000000E+00 0.  1.
<mgrwt>
<rscale>  0 0.29837750E+01</rscale>
<asrwt>0</asrwt>
<pdfrwt beam="1">0</pdfrwt>
<pdfrwt beam="2">0</pdfrwt>
<totfact> 0.43164163E+11</totfact>
</mgrwt>
</event>
<event>
 4    2  0.2130683E+006  0.2131371E+01  0.7546771E-02  0.2897363E+00
         22   -1    0    0    0    0  0.00000000000E+00  0.00000000000E+00  0.78370095835E+01  0.78370095835E+01  0.00000000000E+00 0.  1.
         22   -1    0    0    0    0 -0.00000000000E+00 -0.00000000000E+00 -0.62746571877E+00  0.62746571877E+00  0.00000000000E+00 0. -1.
          4    1    1    2  501    0  0.60937015044E+00 -0.20424030163E+01  0.24364860886E+01  0.32371602557E+01  0.00000000000E+00 0. -1.
         -4    1    1    2    0  501 -0.60937015044E+00  0.20424030163E+01  0.47730577762E+01  0.52273150466E+01  0.00000000000E+00 0.  1.
<mgrwt>
<rscale>  0 0.21313709E+01</rscale>
<asrwt>0</asrwt>
<pdfrwt beam="1">0</pdfrwt>
<pdfrwt beam="2">0</pdfrwt>
<totfact> 0.36169915E+12</totfact>
</mgrwt>
</event>
<event>
 4    2  0.2130683E+006  0.4975648E+01  0.7546771E-02  0.2125922E+00
         22   -1    0    0    0    0  0.00000000000E+00  0.00000000000E+00  0.22848658921E+02  0.22848658921E+02  0.00000000000E+00 0.  1.
         22   -1    0    0    0    0 -0.00000000000E+00 -0.00000000000E+00 -0.11254978191E+01  0.11254978191E+01  0.00000000000E+00 0. -1.
          4    1    1    2  501    0 -0.23122283968E+01  0.44057546557E+01  0.85466958340E+01  0.98895441717E+01  0.00000000000E+00 0. -1.
         -4    1    1    2    0  501  0.23122283968E+01 -0.44057546557E+01  0.13176465268E+02  0.14084612568E+02  0.00000000000E+00 0.  1.
<mgrwt>
<rscale>  0 0.49756481E+01</rscale>
<asrwt>0</asrwt>
<pdfrwt beam="1">0</pdfrwt>
<pdfrwt beam="2">0</pdfrwt>
<totfact> 0.50098220E+11</totfact>
</mgrwt>
</event>
<event>
 4    2  0.2130683E+006  0.3412214E+01  0.7546771E-02  0.2406044E+00
         22   -1    0    0    0    0  0.00000000000E+00  0.00000000000E+00  0.31517022120E+01  0.31517022120E+01  0.00000000000E+00 0.  1.
         22   -1    0    0    0    0 -0.00000000000E+00 -0.00000000000E+00 -0.42254771473E+01  0.42254771473E+01  0.00000000000E+00 0. -1.
          4    1    1    2  501    0  0.11530958254E+01  0.32114755622E+01  0.77096509876E+00  0.34982270442E+01  0.00000000000E+00 0. -1.
         -4    1    1    2    0  501 -0.11530958254E+01 -0.32114755622E+01 -0.18447400341E+01  0.38789523151E+01  0.00000000000E+00 0.  1.
<mgrwt>
<rscale>  0 0.34122141E+01</rscale>
<asrwt>0</asrwt>
<pdfrwt beam="1">0</pdfrwt>
<pdfrwt beam="2">0</pdfrwt>
<totfact> 0.11785702E+12</totfact>
</mgrwt>
</event>
<event>
 4    2  0.2130683E+006  0.2101230E+01  0.7546771E-02  0.2915594E+00
         22   -1    0    0    0    0  0.00000000000E+00  0.00000000000E+00  0.17719242127E+01  0.17719242127E+01  0.00000000000E+00 0.  1.
         22   -1    0    0    0    0 -0.00000000000E+00 -0.00000000000E+00 -0.26077575914E+01  0.26077575914E+01  0.00000000000E+00 0. -1.
          4    1    1    2  501    0 -0.60728414172E+00 -0.20115594670E+01  0.43985794958E-01  0.21016898602E+01  0.00000000000E+00 0.  1.
         -4    1    1    2    0  501  0.60728414172E+00  0.20115594670E+01 -0.87981917369E+00  0.22779919439E+01  0.00000000000E+00 0. -1.
<mgrwt>
<rscale>  0 0.21012295E+01</rscale>
<asrwt>0</asrwt>
<pdfrwt beam="1">0</pdfrwt>
<pdfrwt beam="2">0</pdfrwt>
<totfact> 0.40493249E+12</totfact>
</mgrwt>
</event>
<event>
 4    2  0.2130683E+006  0.4022035E+01  0.7546771E-02  0.2273102E+00
         22   -1    0    0    0    0  0.00000000000E+00  0.00000000000E+00  0.25650736791E+01  0.25650736791E+01  0.00000000000E+00 0.  1.
         22   -1    0    0    0    0 -0.00000000000E+00 -0.00000000000E+00 -0.14886219324E+02  0.14886219324E+02  0.00000000000E+00 0. -1.
          4    1    1    2  501    0  0.34959366781E+01  0.19887655836E+01 -0.12784883895E+02  0.13402612357E+02  0.00000000000E+00 0. -1.
         -4    1    1    2    0  501 -0.34959366781E+01 -0.19887655836E+01  0.46373825012E+00  0.40486806453E+01  0.00000000000E+00 0.  1.
<mgrwt>
<rscale>  0 0.40220345E+01</rscale>
<asrwt>0</asrwt>
<pdfrwt beam="1">0</pdfrwt>
<pdfrwt beam="2">0</pdfrwt>
<totfact> 0.32979668E+11</totfact>
</mgrwt>
</event>
<event>
 4    2  0.2130683E+006  0.2632396E+01  0.7546771E-02  0.2652890E+00
         22   -1    0    0    0    0  0.00000000000E+00  0.00000000000E+00  0.12810060120E+02  0.12810060120E+02  0.00000000000E+00 0.  1.
         22   -1    0    0    0    0 -0.00000000000E+00 -0.00000000000E+00 -0.18062053322E+01  0.18062053322E+01  0.00000000000E+00 0. -1.
          4    1    1    2  501    0 -0.20759948490E+01  0.16185651257E+01 -0.61471679937E+00  0.27032174205E+01  0.00000000000E+00 0. -1.
         -4    1    1    2    0  501  0.20759948490E+01 -0.16185651257E+01  0.11618571587E+02  0.11913048032E+02  0.00000000000E+00 0.  1.
<mgrwt>
<rscale>  0 0.26323958E+01</rscale>
<asrwt>0</asrwt>
<pdfrwt beam="1">0</pdfrwt>
<pdfrwt beam="2">0</pdfrwt>
<totfact> 0.59544003E+11</totfact>
</mgrwt>
</event>
<event>
 4    2  0.2130683E+006  0.2041285E+01  0.7546771E-02  0.2953403E+00
         22   -1    0    0    0    0  0.00000000000E+00  0.00000000000E+00  0.47327112012E+01  0.47327112012E+01  0.00000000000E+00 0. -1.
         22   -1    0    0    0    0 -0.00000000000E+00 -0.00000000000E+00 -0.47253768896E+02  0.47253768896E+02  0.00000000000E+00 0.  1.
          4    1    1    2  501    0 -0.39225112205E+00  0.20032436431E+01 -0.47010476435E+02  0.47054773835E+02  0.00000000000E+00 0.  1.
         -4    1    1    2    0  501  0.39225112205E+00 -0.20032436431E+01  0.44894187399E+01  0.49317062624E+01  0.00000000000E+00 0. -1.
<mgrwt>
<rscale>  0 0.20412854E+01</rscale>
<asrwt>0</asrwt>
<pdfrwt beam="1">0</pdfrwt>
<pdfrwt beam="2">0</pdfrwt>
<totfact> 0.37185067E+10</totfact>
</mgrwt>
</event>
<event>
 4    2  0.2130683E+006  0.2571416E+01  0.7546771E-02  0.2677859E+00
         22   -1    0    0    0    0  0.00000000000E+00  0.00000000000E+00  0.47458300272E+01  0.47458300272E+01  0.00000000000E+00 0. -1.
         22   -1    0    0    0    0 -0.00000000000E+00 -0.00000000000E+00 -0.15026956636E+01  0.15026956636E+01  0.00000000000E+00 0.  1.
          4    1    1    2  501    0 -0.25685502756E+01 -0.12135961443E+00  0.77844598234E+00  0.26866627666E+01  0.00000000000E+00 0. -1.
         -4    1    1    2    0  501  0.25685502756E+01  0.12135961443E+00  0.24646883812E+01  0.35618629242E+01  0.00000000000E+00 0.  1.
<mgrwt>
<rscale>  0 0.25714157E+01</rscale>
<asrwt>0</asrwt>
<pdfrwt beam="1">0</pdfrwt>
<pdfrwt beam="2">0</pdfrwt>
<totfact> 0.24259325E+12</totfact>
</mgrwt>
</event>
<event>
 4    2  0.2130683E+006  0.2103637E+01  0.7546771E-02  0.2914119E+00
         22   -1    0    0    0    0  0.00000000000E+00  0.00000000000E+00  0.14141562222E+01  0.14141562222E+01  0.00000000000E+00 0. -1.
         22   -1    0    0    0    0 -0.00000000000E+00 -0.00000000000E+00 -0.55694417840E+01  0.55694417840E+01  0.00000000000E+00 0.  1.
          4    1    1    2  501    0 -0.20344771431E+01 -0.53496884389E+00 -0.43889242153E+01  0.48670262664E+01  0.00000000000E+00 0.  1.
         -4    1    1    2    0  501  0.20344771431E+01  0.53496884389E+00  0.23363865348E+00  0.21165717399E+01  0.00000000000E+00 0. -1.
<mgrwt>
<rscale>  0 0.21036371E+01</rscale>
<asrwt>0</asrwt>
<pdfrwt beam="1">0</pdfrwt>
<pdfrwt beam="2">0</pdfrwt>
<totfact> 0.21519114E+12</totfact>
</mgrwt>
</event>
<event>
 4    2  0.2130683E+006  0.5120051E+01  0.7546771E-02  0.2108941E+00
         22   -1    0    0    0    0  0.00000000000E+00  0.00000000000E+00  0.13686262754E+01  0.13686262754E+01  0.00000000000E+00 0.  1.
         22   -1    0    0    0    0 -0.00000000000E+00 -0.00000000000E+00 -0.21032530083E+02  0.21032530083E+02  0.00000000000E+00 0. -1.
          4    1    1    2  501    0 -0.16185294430E+01  0.48574979033E+01 -0.13179155712E+02  0.14138778898E+02  0.00000000000E+00 0. -1.
         -4    1    1    2    0  501  0.16185294430E+01 -0.48574979033E+01 -0.64847480959E+01  0.82623774608E+01  0.00000000000E+00 0.  1.
<mgrwt>
<rscale>  0 0.51200511E+01</rscale>
<asrwt>0</asrwt>
<pdfrwt beam="1">0</pdfrwt>
<pdfrwt beam="2">0</pdfrwt>
<totfact> 0.44412031E+11</totfact>
</mgrwt>
</event>
<event>
 4    2  0.2130683E+006  0.2818287E+01  0.7546771E-02  0.2582921E+00
         22   -1    0    0    0    0  0.00000000000E+00  0.00000000000E+00  0.36419382946E+02  0.36419382946E+02  0.00000000000E+00 0.  1.
         22   -1    0    0    0    0 -0.00000000000E+00 -0.00000000000E+00 -0.24398334941E+00  0.24398334941E+00  0.00000000000E+00 0. -1.
          4    1    1    2  501    0  0.10944844724E+00  0.28161612901E+01  0.12115874165E+02  0.12439338815E+02  0.00000000000E+00 0. -1.
         -4    1    1    2    0  501 -0.10944844724E+00 -0.28161612901E+01  0.24059525432E+02  0.24224027480E+02  0.00000000000E+00 0.  1.
<mgrwt>
<rscale>  0 0.28182873E+01</rscale>
<asrwt>0</asrwt>
<pdfrwt beam="1">0</pdfrwt>
<pdfrwt beam="2">0</pdfrwt>
<totfact> 0.15592292E+12</totfact>
</mgrwt>
</event>
<event>
 4    2  0.2130683E+006  0.3722196E+01  0.7546771E-02  0.2333766E+00
         22   -1    0    0    0    0  0.00000000000E+00  0.00000000000E+00  0.69390030726E+01  0.69390030726E+01  0.00000000000E+00 0. -1.
         22   -1    0    0    0    0 -0.00000000000E+00 -0.00000000000E+00 -0.30388460049E+01  0.30388460049E+01  0.00000000000E+00 0.  1.
          4    1    1    2  501    0 -0.99031704172E+00 -0.35880378417E+01 -0.97156887980E+00  0.38469064825E+01  0.00000000000E+00 0.  1.
         -4    1    1    2    0  501  0.99031704172E+00  0.35880378417E+01  0.48717259475E+01  0.61309425951E+01  0.00000000000E+00 0. -1.
<mgrwt>
<rscale>  0 0.37221960E+01</rscale>
<asrwt>0</asrwt>
<pdfrwt beam="1">0</pdfrwt>
<pdfrwt beam="2">0</pdfrwt>
<totfact> 0.68264165E+11</totfact>
</mgrwt>
</event>
<event>
 4    2  0.2130683E+006  0.2301466E+01  0.7546771E-02  0.2803104E+00
         22   -1    0    0    0    0  0.00000000000E+00  0.00000000000E+00  0.21884383009E+00  0.21884383009E+00  0.00000000000E+00 0. -1.
         22   -1    0    0    0    0 -0.00000000000E+00 -0.00000000000E+00 -0.24612066854E+02  0.24612066854E+02  0.00000000000E+00 0.  1.
          4    1    1    2  501    0 -0.19138700495E+01  0.12782195247E+01 -0.10596595274E+02  0.10843642152E+02  0.00000000000E+00 0.  1.
         -4    1    1    2    0  501  0.19138700495E+01 -0.12782195247E+01 -0.13796627750E+02  0.13987268532E+02  0.00000000000E+00 0. -1.
<mgrwt>
<rscale>  0 0.23014656E+01</rscale>
<asrwt>0</asrwt>
<pdfrwt beam="1">0</pdfrwt>
<pdfrwt beam="2">0</pdfrwt>
<totfact> 0.29011449E+12</totfact>
</mgrwt>
</event>
<event>
 4    2  0.2130683E+006  0.2303133E+01  0.7546771E-02  0.2802245E+00
         22   -1    0    0    0    0  0.00000000000E+00  0.00000000000E+00  0.67112523237E+01  0.67112523237E+01  0.00000000000E+00 0. -1.
         22   -1    0    0    0    0 -0.00000000000E+00 -0.00000000000E+00 -0.24130219909E+01  0.24130219909E+01  0.00000000000E+00 0.  1.
          4    1    1    2  501    0 -0.86680736689E+00  0.21337916137E+01 -0.15919856437E+01  0.27997928409E+01  0.00000000000E+00 0.  1.
         -4    1    1    2    0  501  0.86680736689E+00 -0.21337916137E+01  0.58902159765E+01  0.63244814738E+01  0.00000000000E+00 0. -1.
<mgrwt>
<rscale>  0 0.23031330E+01</rscale>
<asrwt>0</asrwt>
<pdfrwt beam="1">0</pdfrwt>
<pdfrwt beam="2">0</pdfrwt>
<totfact> 0.92939539E+11</totfact>
</mgrwt>
</event>
<event>
 4    2  0.2130683E+006  0.2250965E+01  0.7546771E-02  0.2829667E+00
         22   -1    0    0    0    0  0.00000000000E+00  0.00000000000E+00  0.69342551648E+00  0.69342551648E+00  0.00000000000E+00 0.  1.
         22   -1    0    0    0    0 -0.00000000000E+00 -0.00000000000E+00 -0.96727470333E+01  0.96727470333E+01  0.00000000000E+00 0. -1.
          4    1    1    2  501    0 -0.22760925926E+00 -0.22394276238E+01 -0.70529645681E+01  0.74034553592E+01  0.00000000000E+00 0. -1.
         -4    1    1    2    0  501  0.22760925926E+00  0.22394276238E+01 -0.19263569487E+01  0.29627171905E+01  0.00000000000E+00 0.  1.
<mgrwt>
<rscale>  0 0.22509647E+01</rscale>
<asrwt>0</asrwt>
<pdfrwt beam="1">0</pdfrwt>
<pdfrwt beam="2">0</pdfrwt>
<totfact> 0.25060979E+12</totfact>
</mgrwt>
</event>
<event>
 4    2  0.2130683E+006  0.2032733E+01  0.7546771E-02  0.2958974E+00
         22   -1    0    0    0    0  0.00000000000E+00  0.00000000000E+00  0.65298927996E+02  0.65298927996E+02  0.00000000000E+00 0.  1.
         22   -1    0    0    0    0 -0.00000000000E+00 -0.00000000000E+00 -0.75821939618E-01  0.75821939618E-01  0.00000000000E+00 0. -1.
          4    1    1    2  501    0  0.20077816348E+01  0.31751518861E+00  0.19316350461E+02  0.19423012077E+02  0.00000000000E+00 0. -1.
         -4    1    1    2    0  501 -0.20077816348E+01 -0.31751518861E+00  0.45906755595E+02  0.45951737859E+02  0.00000000000E+00 0.  1.
<mgrwt>
<rscale>  0 0.20327329E+01</rscale>
<asrwt>0</asrwt>
<pdfrwt beam="1">0</pdfrwt>
<pdfrwt beam="2">0</pdfrwt>
<totfact> 0.26462011E+12</totfact>
</mgrwt>
</event>
<event>
 4    2  0.2130683E+006  0.2958960E+01  0.7546771E-02  0.2535310E+00
         22   -1    0    0    0    0  0.00000000000E+00  0.00000000000E+00  0.57623183626E+01  0.57623183626E+01  0.00000000000E+00 0. -1.
         22   -1    0    0    0    0 -0.00000000000E+00 -0.00000000000E+00 -0.16757927738E+01  0.16757927738E+01  0.00000000000E+00 0.  1.
          4    1    1    2  501    0 -0.19170467561E+01 -0.22539690588E+01  0.90723778092E+00  0.30949192516E+01  0.00000000000E+00 0.  1.
         -4    1    1    2    0  501  0.19170467561E+01  0.22539690588E+01  0.31792878078E+01  0.43431918848E+01  0.00000000000E+00 0. -1.
<mgrwt>
<rscale>  0 0.29589601E+01</rscale>
<asrwt>0</asrwt>
<pdfrwt beam="1">0</pdfrwt>
<pdfrwt beam="2">0</pdfrwt>
<totfact> 0.16998799E+12</totfact>
</mgrwt>
</event>
<event>
 4    2  0.2130683E+006  0.2337300E+01  0.7546771E-02  0.2784916E+00
         22   -1    0    0    0    0  0.00000000000E+00  0.00000000000E+00  0.30404238465E+01  0.30404238465E+01  0.00000000000E+00 0. -1.
         22   -1    0    0    0    0 -0.00000000000E+00 -0.00000000000E+00 -0.21827695246E+01  0.21827695246E+01  0.00000000000E+00 0.  1.
          4    1    1    2  501    0  0.19734781900E+00  0.23289534630E+01 -0.66939540854E+00  0.24312672843E+01  0.00000000000E+00 0.  1.
         -4    1    1    2    0  501 -0.19734781900E+00 -0.23289534630E+01  0.15270497304E+01  0.27919260868E+01  0.00000000000E+00 0. -1.
<mgrwt>
<rscale>  0 0.23372998E+01</rscale>
<asrwt>0</asrwt>
<pdfrwt beam="1">0</pdfrwt>
<pdfrwt beam="2">0</pdfrwt>
<totfact> 0.26598294E+12</totfact>
</mgrwt>
</event>
<event>
 4    2  0.2130683E+006  0.5361557E+01  0.7546771E-02  0.2082169E+00
         22   -1    0    0    0    0  0.00000000000E+00  0.00000000000E+00  0.64031629999E+02  0.64031629999E+02  0.00000000000E+00 0.  1.
         22   -1    0    0    0    0 -0.00000000000E+00 -0.00000000000E+00 -0.91815243435E+00  0.91815243435E+00  0.00000000000E+00 0. -1.
          4    1    1    2  501    0 -0.51315287025E+01  0.15536094232E+01  0.83413704387E+01  0.99158837156E+01  0.00000000000E+00 0. -1.
         -4    1    1    2    0  501  0.51315287025E+01 -0.15536094232E+01  0.54772107126E+02  0.55033898718E+02  0.00000000000E+00 0.  1.
<mgrwt>
<rscale>  0 0.53615566E+01</rscale>
<asrwt>0</asrwt>
<pdfrwt beam="1">0</pdfrwt>
<pdfrwt beam="2">0</pdfrwt>
<totfact> 0.16625119E+11</totfact>
</mgrwt>
</event>
<event>
 4    2  0.2130683E+006  0.2094736E+01  0.7546771E-02  0.2919587E+00
         22   -1    0    0    0    0  0.00000000000E+00  0.00000000000E+00  0.70185425091E+00  0.70185425091E+00  0.00000000000E+00 0.  1.
         22   -1    0    0    0    0 -0.00000000000E+00 -0.00000000000E+00 -0.44753587245E+02  0.44753587245E+02  0.00000000000E+00 0. -1.
          4    1    1    2  501    0 -0.20039299000E+01 -0.61007037784E+00 -0.43106412390E+02  0.43157278761E+02  0.00000000000E+00 0. -1.
         -4    1    1    2    0  501  0.20039299000E+01  0.61007037784E+00 -0.94532060334E+00  0.22981627343E+01  0.00000000000E+00 0.  1.
<mgrwt>
<rscale>  0 0.20947365E+01</rscale>
<asrwt>0</asrwt>
<pdfrwt beam="1">0</pdfrwt>
<pdfrwt beam="2">0</pdfrwt>
<totfact> 0.36288431E+11</totfact>
</mgrwt>
</event>
<event>
 4    2  0.2130683E+006  0.2207742E+01  0.7546771E-02  0.2853322E+00
         22   -1    0    0    0    0  0.00000000000E+00  0.00000000000E+00  0.15826266957E+01  0.15826266957E+01  0.00000000000E+00 0.  1.
         22   -1    0    0    0    0 -0.00000000000E+00 -0.00000000000E+00 -0.64217568338E+01  0.64217568338E+01  0.00000000000E+00 0. -1.
          4    1    1    2  501    0  0.15838244354E+01 -0.15380581172E+01 -0.53067425453E+01  0.57476637911E+01  0.00000000000E+00 0. -1.
         -4    1    1    2    0  501 -0.15838244354E+01  0.15380581172E+01  0.46761240721E+00  0.22567197383E+01  0.00000000000E+00 0.  1.
<mgrwt>
<rscale>  0 0.22077415E+01</rscale>
<asrwt>0</asrwt>
<pdfrwt beam="1">0</pdfrwt>
<pdfrwt beam="2">0</pdfrwt>
<totfact> 0.15958199E+12</totfact>
</mgrwt>
</event>
<event>
 4    2  0.2130683E+006  0.2425973E+01  0.7546771E-02  0.2742094E+00
         22   -1    0    0    0    0  0.00000000000E+00  0.00000000000E+00  0.54875986182E+00  0.54875986182E+00  0.00000000000E+00 0. -1.
         22   -1    0    0    0    0 -0.00000000000E+00 -0.00000000000E+00 -0.10728594333E+02  0.10728594333E+02  0.00000000000E+00 0.  1.
          4    1    1    2  501    0  0.57148833113E+00 -0.23576993773E+01 -0.49840164593E+01  0.55430826562E+01  0.00000000000E+00 0. -1.
         -4    1    1    2    0  501 -0.57148833113E+00  0.23576993773E+01 -0.51958180115E+01  0.57342715383E+01  0.00000000000E+00 0.  1.
<mgrwt>
<rscale>  0 0.24259731E+01</rscale>
<asrwt>0</asrwt>
<pdfrwt beam="1">0</pdfrwt>
<pdfrwt beam="2">0</pdfrwt>
<totfact> 0.28814226E+12</totfact>
</mgrwt>
</event>
<event>
 4    2  0.2130683E+006  0.4262620E+01  0.7546771E-02  0.2229739E+00
         22   -1    0    0    0    0  0.00000000000E+00  0.00000000000E+00  0.18196170289E+01  0.18196170289E+01  0.00000000000E+00 0.  1.
         22   -1    0    0    0    0 -0.00000000000E+00 -0.00000000000E+00 -0.23295291743E+02  0.23295291743E+02  0.00000000000E+00 0. -1.
          4    1    1    2  501    0 -0.72688739847E+00 -0.42001858374E+01 -0.20229710003E+02  0.20673923023E+02  0.00000000000E+00 0. -1.
         -4    1    1    2    0  501  0.72688739847E+00  0.42001858374E+01 -0.12459647111E+01  0.44409857487E+01  0.00000000000E+00 0.  1.
<mgrwt>
<rscale>  0 0.42626197E+01</rscale>
<asrwt>0</asrwt>
<pdfrwt beam="1">0</pdfrwt>
<pdfrwt beam="2">0</pdfrwt>
<totfact> 0.28145468E+11</totfact>
</mgrwt>
</event>
<event>
 4    2  0.2130683E+006  0.3222588E+01  0.7546771E-02  0.2456199E+00
         22   -1    0    0    0    0  0.00000000000E+00  0.00000000000E+00  0.31491837211E+00  0.31491837211E+00  0.00000000000E+00 0. -1.
         22   -1    0    0    0    0 -0.00000000000E+00 -0.00000000000E+00 -0.34212448498E+02  0.34212448498E+02  0.00000000000E+00 0.  1.
          4    1    1    2  501    0  0.32123058123E+01  0.25722181598E+00 -0.13668197826E+02  0.14042959215E+02  0.00000000000E+00 0. -1.
         -4    1    1    2    0  501 -0.32123058123E+01 -0.25722181598E+00 -0.20229332300E+02  0.20484407655E+02  0.00000000000E+00 0.  1.
<mgrwt>
<rscale>  0 0.32225877E+01</rscale>
<asrwt>0</asrwt>
<pdfrwt beam="1">0</pdfrwt>
<pdfrwt beam="2">0</pdfrwt>
<totfact> 0.12697260E+12</totfact>
</mgrwt>
</event>
<event>
 4    2  0.2130683E+006  0.3513154E+01  0.7546771E-02  0.2381291E+00
         22   -1    0    0    0    0  0.00000000000E+00  0.00000000000E+00  0.49979039543E+01  0.49979039543E+01  0.00000000000E+00 0.  1.
         22   -1    0    0    0    0 -0.00000000000E+00 -0.00000000000E+00 -0.51789734949E+01  0.51789734949E+01  0.00000000000E+00 0. -1.
          4    1    1    2  501    0  0.35128124346E+01 -0.48979037978E-01 -0.37710306820E+01  0.51539230253E+01  0.00000000000E+00 0. -1.
         -4    1    1    2    0  501 -0.35128124346E+01  0.48979037978E-01  0.35899611414E+01  0.50229544238E+01  0.00000000000E+00 0.  1.
<mgrwt>
<rscale>  0 0.35131539E+01</rscale>
<asrwt>0</asrwt>
<pdfrwt beam="1">0</pdfrwt>
<pdfrwt beam="2">0</pdfrwt>
<totfact> 0.53866463E+11</totfact>
</mgrwt>
</event>
<event>
 4    2  0.2130683E+006  0.3390676E+01  0.7546771E-02  0.2411492E+00
         22   -1    0    0    0    0  0.00000000000E+00  0.00000000000E+00  0.77537769909E+02  0.77537769909E+02  0.00000000000E+00 0. -1.
         22   -1    0    0    0    0 -0.00000000000E+00 -0.00000000000E+00 -0.11255681061E+01  0.11255681061E+01  0.00000000000E+00 0.  1.
          4    1    1    2  501    0 -0.32155553719E+01  0.10755874985E+01  0.15564740265E+01  0.37308573026E+01  0.00000000000E+00 0.  1.
         -4    1    1    2    0  501  0.32155553719E+01 -0.10755874985E+01  0.74855727777E+02  0.74932480713E+02  0.00000000000E+00 0. -1.
<mgrwt>
<rscale>  0 0.33906762E+01</rscale>
<asrwt>0</asrwt>
<pdfrwt beam="1">0</pdfrwt>
<pdfrwt beam="2">0</pdfrwt>
<totfact> 0.10159273E+11</totfact>
</mgrwt>
</event>
<event>
 4    2  0.2130683E+006  0.2287048E+01  0.7546771E-02  0.2810573E+00
         22   -1    0    0    0    0  0.00000000000E+00  0.00000000000E+00  0.24214980719E+02  0.24214980719E+02  0.00000000000E+00 0.  1.
         22   -1    0    0    0    0 -0.00000000000E+00 -0.00000000000E+00 -0.21601529288E+00  0.21601529288E+00  0.00000000000E+00 0. -1.
          4    1    1    2  501    0  0.17004837422E+01 -0.15293612102E+01  0.12077885863E+02  0.12292514697E+02  0.00000000000E+00 0.  1.
         -4    1    1    2    0  501 -0.17004837422E+01  0.15293612102E+01  0.11921079563E+02  0.12138481315E+02  0.00000000000E+00 0. -1.
<mgrwt>
<rscale>  0 0.22870485E+01</rscale>
<asrwt>0</asrwt>
<pdfrwt beam="1">0</pdfrwt>
<pdfrwt beam="2">0</pdfrwt>
<totfact> 0.30045298E+12</totfact>
</mgrwt>
</event>
<event>
 4    2  0.2130683E+006  0.2126886E+01  0.7546771E-02  0.2900044E+00
         22   -1    0    0    0    0  0.00000000000E+00  0.00000000000E+00  0.48451478494E+01  0.48451478494E+01  0.00000000000E+00 0.  1.
         22   -1    0    0    0    0 -0.00000000000E+00 -0.00000000000E+00 -0.17184038196E+01  0.17184038196E+01  0.00000000000E+00 0. -1.
          4    1    1    2  501    0 -0.64784661375E+00 -0.20258178657E+01 -0.65438864317E+00  0.22252792536E+01  0.00000000000E+00 0. -1.
         -4    1    1    2    0  501  0.64784661375E+00  0.20258178657E+01  0.37811326730E+01  0.43382724155E+01  0.00000000000E+00 0.  1.
<mgrwt>
<rscale>  0 0.21268858E+01</rscale>
<asrwt>0</asrwt>
<pdfrwt beam="1">0</pdfrwt>
<pdfrwt beam="2">0</pdfrwt>
<totfact> 0.20281197E+12</totfact>
</mgrwt>
</event>
<event>
 4    2  0.2130683E+006  0.2104471E+01  0.7546771E-02  0.2913608E+00
         22   -1    0    0    0    0  0.00000000000E+00  0.00000000000E+00  0.51063664644E+00  0.51063664644E+00  0.00000000000E+00 0. -1.
         22   -1    0    0    0    0 -0.00000000000E+00 -0.00000000000E+00 -0.86740848274E+01  0.86740848274E+01  0.00000000000E+00 0.  1.
          4    1    1    2  501    0  0.75054022000E+00  0.19660847497E+01 -0.41307950157E+01  0.46359753371E+01  0.00000000000E+00 0. -1.
         -4    1    1    2    0  501 -0.75054022000E+00 -0.19660847497E+01 -0.40326531653E+01  0.45487461367E+01  0.00000000000E+00 0.  1.
<mgrwt>
<rscale>  0 0.21044714E+01</rscale>
<asrwt>0</asrwt>
<pdfrwt beam="1">0</pdfrwt>
<pdfrwt beam="2">0</pdfrwt>
<totfact> 0.40417609E+12</totfact>
</mgrwt>
</event>
<event>
 4    2  0.2130683E+006  0.2391718E+01  0.7546771E-02  0.2758282E+00
         22   -1    0    0    0    0  0.00000000000E+00  0.00000000000E+00  0.30046840127E+01  0.30046840127E+01  0.00000000000E+00 0.  1.
         22   -1    0    0    0    0 -0.00000000000E+00 -0.00000000000E+00 -0.25299378180E+01  0.25299378180E+01  0.00000000000E+00 0. -1.
          4    1    1    2  501    0  0.24680949254E+00 -0.23789491834E+01 -0.11393239438E+01  0.26492212425E+01  0.00000000000E+00 0. -1.
         -4    1    1    2    0  501 -0.24680949254E+00  0.23789491834E+01  0.16140701385E+01  0.28854005883E+01  0.00000000000E+00 0.  1.
<mgrwt>
<rscale>  0 0.23917178E+01</rscale>
<asrwt>0</asrwt>
<pdfrwt beam="1">0</pdfrwt>
<pdfrwt beam="2">0</pdfrwt>
<totfact> 0.22719469E+12</totfact>
</mgrwt>
</event>
<event>
 4    2  0.2130683E+006  0.2333801E+01  0.7546771E-02  0.2786669E+00
         22   -1    0    0    0    0  0.00000000000E+00  0.00000000000E+00  0.16731754643E+02  0.16731754643E+02  0.00000000000E+00 0.  1.
         22   -1    0    0    0    0 -0.00000000000E+00 -0.00000000000E+00 -0.48356098593E+00  0.48356098593E+00  0.00000000000E+00 0. -1.
          4    1    1    2  501    0 -0.20328919034E+01 -0.11462893099E+01  0.32033007158E+01  0.39633021773E+01  0.00000000000E+00 0. -1.
         -4    1    1    2    0  501  0.20328919034E+01  0.11462893099E+01  0.13044892941E+02  0.13252013452E+02  0.00000000000E+00 0.  1.
<mgrwt>
<rscale>  0 0.23338013E+01</rscale>
<asrwt>0</asrwt>
<pdfrwt beam="1">0</pdfrwt>
<pdfrwt beam="2">0</pdfrwt>
<totfact> 0.19286208E+12</totfact>
</mgrwt>
</event>
<event>
 4    2  0.2130683E+006  0.3568170E+01  0.7546771E-02  0.2368315E+00
         22   -1    0    0    0    0  0.00000000000E+00  0.00000000000E+00  0.99156012456E+01  0.99156012456E+01  0.00000000000E+00 0. -1.
         22   -1    0    0    0    0 -0.00000000000E+00 -0.00000000000E+00 -0.14625040053E+01  0.14625040053E+01  0.00000000000E+00 0.  1.
          4    1    1    2  501    0  0.25973717668E+01  0.24465280091E+01  0.22391272462E+01  0.42125443878E+01  0.00000000000E+00 0.  1.
         -4    1    1    2    0  501 -0.25973717668E+01 -0.24465280091E+01  0.62139699941E+01  0.71655608631E+01  0.00000000000E+00 0. -1.
<mgrwt>
<rscale>  0 0.35681703E+01</rscale>
<asrwt>0</asrwt>
<pdfrwt beam="1">0</pdfrwt>
<pdfrwt beam="2">0</pdfrwt>
<totfact> 0.10370465E+12</totfact>
</mgrwt>
</event>
<event>
 4    2  0.2130683E+006  0.2461606E+01  0.7546771E-02  0.2725703E+00
         22   -1    0    0    0    0  0.00000000000E+00  0.00000000000E+00  0.49591818851E+00  0.49591818851E+00  0.00000000000E+00 0.  1.
         22   -1    0    0    0    0 -0.00000000000E+00 -0.00000000000E+00 -0.15089479887E+02  0.15089479887E+02  0.00000000000E+00 0. -1.
          4    1    1    2  501    0 -0.19772078907E+01  0.14663401876E+01 -0.10695742696E+02  0.10975354956E+02  0.00000000000E+00 0. -1.
         -4    1    1    2    0  501  0.19772078907E+01 -0.14663401876E+01 -0.38978190026E+01  0.46100431197E+01  0.00000000000E+00 0.  1.
<mgrwt>
<rscale>  0 0.24616061E+01</rscale>
<asrwt>0</asrwt>
<pdfrwt beam="1">0</pdfrwt>
<pdfrwt beam="2">0</pdfrwt>
<totfact> 0.21292951E+12</totfact>
</mgrwt>
</event>
<event>
 4    2  0.2130683E+006  0.4078960E+01  0.7546771E-02  0.2262451E+00
         22   -1    0    0    0    0  0.00000000000E+00  0.00000000000E+00  0.26560055375E+01  0.26560055375E+01  0.00000000000E+00 0.  1.
         22   -1    0    0    0    0 -0.00000000000E+00 -0.00000000000E+00 -0.62841537867E+01  0.62841537867E+01  0.00000000000E+00 0. -1.
          4    1    1    2  501    0  0.20027412068E+01 -0.35534406612E+01 -0.15625754570E+01  0.43680149877E+01  0.00000000000E+00 0.  1.
         -4    1    1    2    0  501 -0.20027412068E+01  0.35534406612E+01 -0.20655727922E+01  0.45721443365E+01  0.00000000000E+00 0. -1.
<mgrwt>
<rscale>  0 0.40789598E+01</rscale>
<asrwt>0</asrwt>
<pdfrwt beam="1">0</pdfrwt>
<pdfrwt beam="2">0</pdfrwt>
<totfact> 0.89912211E+11</totfact>
</mgrwt>
</event>
<event>
 4    2  0.2130683E+006  0.2046066E+01  0.7546771E-02  0.2950308E+00
         22   -1    0    0    0    0  0.00000000000E+00  0.00000000000E+00  0.32136951107E+01  0.32136951107E+01  0.00000000000E+00 0. -1.
         22   -1    0    0    0    0 -0.00000000000E+00 -0.00000000000E+00 -0.14849306955E+01  0.14849306955E+01  0.00000000000E+00 0.  1.
          4    1    1    2  501    0 -0.17715934652E+01 -0.10236416464E+01  0.41317920434E-01  0.20464830312E+01  0.00000000000E+00 0.  1.
         -4    1    1    2    0  501  0.17715934652E+01  0.10236416464E+01  0.16874464948E+01  0.26521427750E+01  0.00000000000E+00 0. -1.
<mgrwt>
<rscale>  0 0.20460659E+01</rscale>
<asrwt>0</asrwt>
<pdfrwt beam="1">0</pdfrwt>
<pdfrwt beam="2">0</pdfrwt>
<totfact> 0.38895803E+12</totfact>
</mgrwt>
</event>
<event>
 4    2  0.2130683E+006  0.2340973E+01  0.7546771E-02  0.2783082E+00
         22   -1    0    0    0    0  0.00000000000E+00  0.00000000000E+00  0.28121483124E+00  0.28121483124E+00  0.00000000000E+00 0. -1.
         22   -1    0    0    0    0 -0.00000000000E+00 -0.00000000000E+00 -0.52934058032E+02  0.52934058032E+02  0.00000000000E+00 0.  1.
          4    1    1    2  501    0  0.23285711423E+01 -0.24064329599E+00 -0.47476642600E+02  0.47534321762E+02  0.00000000000E+00 0.  1.
         -4    1    1    2    0  501 -0.23285711423E+01  0.24064329599E+00 -0.51762006005E+01  0.56809511014E+01  0.00000000000E+00 0. -1.
<mgrwt>
<rscale>  0 0.23409726E+01</rscale>
<asrwt>0</asrwt>
<pdfrwt beam="1">0</pdfrwt>
<pdfrwt beam="2">0</pdfrwt>
<totfact> 0.81594126E+11</totfact>
</mgrwt>
</event>
<event>
 4    2  0.2130683E+006  0.2810084E+01  0.7546771E-02  0.2585830E+00
         22   -1    0    0    0    0  0.00000000000E+00  0.00000000000E+00  0.19362472918E+02  0.19362472918E+02  0.00000000000E+00 0.  1.
         22   -1    0    0    0    0 -0.00000000000E+00 -0.00000000000E+00 -0.42048477916E+00  0.42048477916E+00  0.00000000000E+00 0. -1.
          4    1    1    2  501    0  0.14888001103E+01  0.23832850323E+01  0.77549254291E+01  0.82483599415E+01  0.00000000000E+00 0. -1.
         -4    1    1    2    0  501 -0.14888001103E+01 -0.23832850323E+01  0.11187062709E+02  0.11534597755E+02  0.00000000000E+00 0.  1.
<mgrwt>
<rscale>  0 0.28100842E+01</rscale>
<asrwt>0</asrwt>
<pdfrwt beam="1">0</pdfrwt>
<pdfrwt beam="2">0</pdfrwt>
<totfact> 0.18837279E+12</totfact>
</mgrwt>
</event>
<event>
 4    2  0.2130683E+006  0.3621594E+01  0.7546771E-02  0.2356044E+00
         22   -1    0    0    0    0  0.00000000000E+00  0.00000000000E+00  0.44838823748E+00  0.44838823748E+00  0.00000000000E+00 0.  1.
         22   -1    0    0    0    0 -0.00000000000E+00 -0.00000000000E+00 -0.32088851079E+02  0.32088851079E+02  0.00000000000E+00 0. -1.
          4    1    1    2  501    0  0.31788691947E+01  0.17351463021E+01 -0.20657998119E+02  0.20973050048E+02  0.00000000000E+00 0. -1.
         -4    1    1    2    0  501 -0.31788691947E+01 -0.17351463021E+01 -0.10982464722E+02  0.11564189268E+02  0.00000000000E+00 0.  1.
<mgrwt>
<rscale>  0 0.36215939E+01</rscale>
<asrwt>0</asrwt>
<pdfrwt beam="1">0</pdfrwt>
<pdfrwt beam="2">0</pdfrwt>
<totfact> 0.92641540E+11</totfact>
</mgrwt>
</event>
<event>
 4    2  0.2130683E+006  0.2073075E+01  0.7546771E-02  0.2933087E+00
         22   -1    0    0    0    0  0.00000000000E+00  0.00000000000E+00  0.68285295935E+01  0.68285295935E+01  0.00000000000E+00 0.  1.
         22   -1    0    0    0    0 -0.00000000000E+00 -0.00000000000E+00 -0.76440246351E+00  0.76440246351E+00  0.00000000000E+00 0. -1.
          4    1    1    2  501    0  0.18920380498E+01  0.84724982370E+00  0.14363866029E+01  0.25220719099E+01  0.00000000000E+00 0. -1.
         -4    1    1    2    0  501 -0.18920380498E+01 -0.84724982370E+00  0.46277405271E+01  0.50708601471E+01  0.00000000000E+00 0.  1.
<mgrwt>
<rscale>  0 0.20730751E+01</rscale>
<asrwt>0</asrwt>
<pdfrwt beam="1">0</pdfrwt>
<pdfrwt beam="2">0</pdfrwt>
<totfact> 0.34095799E+12</totfact>
</mgrwt>
</event>
<event>
 4    2  0.2130683E+006  0.2523043E+01  0.7546771E-02  0.2698458E+00
         22   -1    0    0    0    0  0.00000000000E+00  0.00000000000E+00  0.34222689136E+01  0.34222689136E+01  0.00000000000E+00 0. -1.
         22   -1    0    0    0    0 -0.00000000000E+00 -0.00000000000E+00 -0.19004416126E+01  0.19004416126E+01  0.00000000000E+00 0.  1.
          4    1    1    2  501    0 -0.22185471617E+00  0.25132700258E+01  0.37313988028E+00  0.25504860533E+01  0.00000000000E+00 0. -1.
         -4    1    1    2    0  501  0.22185471617E+00 -0.25132700258E+01  0.11486874208E+01  0.27722244729E+01  0.00000000000E+00 0.  1.
<mgrwt>
<rscale>  0 0.25230430E+01</rscale>
<asrwt>0</asrwt>
<pdfrwt beam="1">0</pdfrwt>
<pdfrwt beam="2">0</pdfrwt>
<totfact> 0.27188492E+12</totfact>
</mgrwt>
</event>
<event>
 4    2  0.2130683E+006  0.2238822E+01  0.7546771E-02  0.2836224E+00
         22   -1    0    0    0    0  0.00000000000E+00  0.00000000000E+00  0.66141092945E+02  0.66141092945E+02  0.00000000000E+00 0.  1.
         22   -1    0    0    0    0 -0.00000000000E+00 -0.00000000000E+00 -0.24932670464E+00  0.24932670464E+00  0.00000000000E+00 0. -1.
          4    1    1    2  501    0  0.18665977843E+01  0.12361790475E+01  0.52512067860E+01  0.57085461052E+01  0.00000000000E+00 0. -1.
         -4    1    1    2    0  501 -0.18665977843E+01 -0.12361790475E+01  0.60640559454E+02  0.60681873544E+02  0.00000000000E+00 0.  1.
<mgrwt>
<rscale>  0 0.22388224E+01</rscale>
<asrwt>0</asrwt>
<pdfrwt beam="1">0</pdfrwt>
<pdfrwt beam="2">0</pdfrwt>
<totfact> 0.69314863E+11</totfact>
</mgrwt>
</event>
<event>
 4    2  0.2130683E+006  0.2011156E+01  0.7546771E-02  0.2973237E+00
         22   -1    0    0    0    0  0.00000000000E+00  0.00000000000E+00  0.50524528523E+02  0.50524528523E+02  0.00000000000E+00 0. -1.
         22   -1    0    0    0    0 -0.00000000000E+00 -0.00000000000E+00 -0.81024186494E-01  0.81024186494E-01  0.00000000000E+00 0.  1.
          4    1    1    2  501    0  0.22863810876E+00 -0.19981175248E+01  0.22454622615E+02  0.22544507664E+02  0.00000000000E+00 0.  1.
         -4    1    1    2    0  501 -0.22863810876E+00  0.19981175248E+01  0.27988881721E+02  0.28061045045E+02  0.00000000000E+00 0. -1.
<mgrwt>
<rscale>  0 0.20111561E+01</rscale>
<asrwt>0</asrwt>
<pdfrwt beam="1">0</pdfrwt>
<pdfrwt beam="2">0</pdfrwt>
<totfact> 0.34624073E+12</totfact>
</mgrwt>
</event>
<event>
 4    2  0.2130683E+006  0.2350654E+01  0.7546771E-02  0.2778273E+00
         22   -1    0    0    0    0  0.00000000000E+00  0.00000000000E+00  0.10777495764E+02  0.10777495764E+02  0.00000000000E+00 0. -1.
         22   -1    0    0    0    0 -0.00000000000E+00 -0.00000000000E+00 -0.78889630756E+00  0.78889630756E+00  0.00000000000E+00 0.  1.
          4    1    1    2  501    0 -0.17244144256E+01  0.15974880174E+01  0.15723749301E+01  0.28280622337E+01  0.00000000000E+00 0.  1.
         -4    1    1    2    0  501  0.17244144256E+01 -0.15974880174E+01  0.84162245260E+01  0.87383298375E+01  0.00000000000E+00 0. -1.
<mgrwt>
<rscale>  0 0.23506538E+01</rscale>
<asrwt>0</asrwt>
<pdfrwt beam="1">0</pdfrwt>
<pdfrwt beam="2">0</pdfrwt>
<totfact> 0.18986310E+12</totfact>
</mgrwt>
</event>
<event>
 4    2  0.2130683E+006  0.2575160E+01  0.7546771E-02  0.2676294E+00
         22   -1    0    0    0    0  0.00000000000E+00  0.00000000000E+00  0.22000091087E+01  0.22000091087E+01  0.00000000000E+00 0. -1.
         22   -1    0    0    0    0 -0.00000000000E+00 -0.00000000000E+00 -0.55904040332E+01  0.55904040332E+01  0.00000000000E+00 0.  1.
          4    1    1    2  501    0  0.21539891416E+01 -0.14113043668E+01 -0.43393838123E+01  0.50459588889E+01  0.00000000000E+00 0.  1.
         -4    1    1    2    0  501 -0.21539891416E+01  0.14113043668E+01  0.94898888784E+00  0.27444542531E+01  0.00000000000E+00 0. -1.
<mgrwt>
<rscale>  0 0.25751600E+01</rscale>
<asrwt>0</asrwt>
<pdfrwt beam="1">0</pdfrwt>
<pdfrwt beam="2">0</pdfrwt>
<totfact> 0.12863058E+12</totfact>
</mgrwt>
</event>
<event>
 4    2  0.2130683E+006  0.2691521E+01  0.7546771E-02  0.2629677E+00
         22   -1    0    0    0    0  0.00000000000E+00  0.00000000000E+00  0.62266471917E+00  0.62266471917E+00  0.00000000000E+00 0.  1.
         22   -1    0    0    0    0 -0.00000000000E+00 -0.00000000000E+00 -0.14820311997E+02  0.14820311997E+02  0.00000000000E+00 0. -1.
          4    1    1    2  501    0  0.79401085727E-01 -0.26903498407E+01 -0.10678914171E+02  0.11012878583E+02  0.00000000000E+00 0. -1.
         -4    1    1    2    0  501 -0.79401085727E-01  0.26903498407E+01 -0.35187331065E+01  0.44300981335E+01  0.00000000000E+00 0.  1.
<mgrwt>
<rscale>  0 0.26915213E+01</rscale>
<asrwt>0</asrwt>
<pdfrwt beam="1">0</pdfrwt>
<pdfrwt beam="2">0</pdfrwt>
<totfact> 0.16829236E+12</totfact>
</mgrwt>
</event>
<event>
 4    2  0.2130683E+006  0.2762289E+01  0.7546771E-02  0.2603093E+00
         22   -1    0    0    0    0  0.00000000000E+00  0.00000000000E+00  0.18479043560E+02  0.18479043560E+02  0.00000000000E+00 0. -1.
         22   -1    0    0    0    0 -0.00000000000E+00 -0.00000000000E+00 -0.42085141463E+00  0.42085141463E+00  0.00000000000E+00 0.  1.
          4    1    1    2  501    0 -0.25527925158E+01  0.10552197136E+01  0.77312282405E+01  0.82098799248E+01  0.00000000000E+00 0.  1.
         -4    1    1    2    0  501  0.25527925158E+01 -0.10552197136E+01  0.10326963905E+02  0.10690015049E+02  0.00000000000E+00 0. -1.
<mgrwt>
<rscale>  0 0.27622886E+01</rscale>
<asrwt>0</asrwt>
<pdfrwt beam="1">0</pdfrwt>
<pdfrwt beam="2">0</pdfrwt>
<totfact> 0.19944058E+12</totfact>
</mgrwt>
</event>
<event>
 4    2  0.2130683E+006  0.2543630E+01  0.7546771E-02  0.2689602E+00
         22   -1    0    0    0    0  0.00000000000E+00  0.00000000000E+00  0.10622071298E+01  0.10622071298E+01  0.00000000000E+00 0.  1.
         22   -1    0    0    0    0 -0.00000000000E+00 -0.00000000000E+00 -0.76216033417E+01  0.76216033417E+01  0.00000000000E+00 0. -1.
          4    1    1    2  501    0 -0.19601609304E+01  0.16210566006E+01 -0.52253638342E+01  0.58115817619E+01  0.00000000000E+00 0. -1.
         -4    1    1    2    0  501  0.19601609304E+01 -0.16210566006E+01 -0.13340323776E+01  0.28722287096E+01  0.00000000000E+00 0.  1.
<mgrwt>
<rscale>  0 0.25436304E+01</rscale>
<asrwt>0</asrwt>
<pdfrwt beam="1">0</pdfrwt>
<pdfrwt beam="2">0</pdfrwt>
<totfact> 0.20545595E+12</totfact>
</mgrwt>
</event>
<event>
 4    2  0.2130683E+006  0.2127935E+01  0.7546771E-02  0.2899415E+00
         22   -1    0    0    0    0  0.00000000000E+00  0.00000000000E+00  0.69006179776E+00  0.69006179776E+00  0.00000000000E+00 0. -1.
         22   -1    0    0    0    0 -0.00000000000E+00 -0.00000000000E+00 -0.75835455626E+01  0.75835455626E+01  0.00000000000E+00 0.  1.
          4    1    1    2  501    0 -0.17312004750E+01 -0.12373577035E+01 -0.19283595277E+01  0.28717032645E+01  0.00000000000E+00 0. -1.
         -4    1    1    2    0  501  0.17312004750E+01  0.12373577035E+01 -0.49651242371E+01  0.54019040959E+01  0.00000000000E+00 0.  1.
<mgrwt>
<rscale>  0 0.21279354E+01</rscale>
<asrwt>0</asrwt>
<pdfrwt beam="1">0</pdfrwt>
<pdfrwt beam="2">0</pdfrwt>
<totfact> 0.33779087E+12</totfact>
</mgrwt>
</event>
<event>
 4    2  0.2130683E+006  0.2601941E+01  0.7546771E-02  0.2665225E+00
         22   -1    0    0    0    0  0.00000000000E+00  0.00000000000E+00  0.25651001975E+01  0.25651001975E+01  0.00000000000E+00 0. -1.
         22   -1    0    0    0    0 -0.00000000000E+00 -0.00000000000E+00 -0.34781079434E+01  0.34781079434E+01  0.00000000000E+00 0.  1.
          4    1    1    2  501    0 -0.15662854569E+00  0.25972221411E+01 -0.19403696942E+01  0.32457864843E+01  0.00000000000E+00 0. -1.
         -4    1    1    2    0  501  0.15662854569E+00 -0.25972221411E+01  0.10273619484E+01  0.27974216566E+01  0.00000000000E+00 0.  1.
<mgrwt>
<rscale>  0 0.26019407E+01</rscale>
<asrwt>0</asrwt>
<pdfrwt beam="1">0</pdfrwt>
<pdfrwt beam="2">0</pdfrwt>
<totfact> 0.18839152E+12</totfact>
</mgrwt>
</event>
<event>
 4    2  0.2130683E+006  0.4707701E+01  0.7546771E-02  0.2159599E+00
         22   -1    0    0    0    0  0.00000000000E+00  0.00000000000E+00  0.98794464853E+01  0.98794464853E+01  0.00000000000E+00 0. -1.
         22   -1    0    0    0    0 -0.00000000000E+00 -0.00000000000E+00 -0.27565079719E+01  0.27565079719E+01  0.00000000000E+00 0.  1.
          4    1    1    2  501    0  0.10343112111E+01  0.45926734628E+01  0.83531786517E+00  0.47812346892E+01  0.00000000000E+00 0.  1.
         -4    1    1    2    0  501 -0.10343112111E+01 -0.45926734628E+01  0.62876206482E+01  0.78547197680E+01  0.00000000000E+00 0. -1.
<mgrwt>
<rscale>  0 0.47077011E+01</rscale>
<asrwt>0</asrwt>
<pdfrwt beam="1">0</pdfrwt>
<pdfrwt beam="2">0</pdfrwt>
<totfact> 0.50009697E+11</totfact>
</mgrwt>
</event>
<event>
 4    2  0.2130683E+006  0.2940996E+01  0.7546771E-02  0.2541161E+00
         22   -1    0    0    0    0  0.00000000000E+00  0.00000000000E+00  0.13722527101E+01  0.13722527101E+01  0.00000000000E+00 0. -1.
         22   -1    0    0    0    0 -0.00000000000E+00 -0.00000000000E+00 -0.66217853558E+01  0.66217853558E+01  0.00000000000E+00 0.  1.
          4    1    1    2  501    0  0.26607250172E+01  0.12529967660E+01 -0.17479198982E+01  0.34212106751E+01  0.00000000000E+00 0. -1.
         -4    1    1    2    0  501 -0.26607250172E+01 -0.12529967660E+01 -0.35016127476E+01  0.45728273909E+01  0.00000000000E+00 0.  1.
<mgrwt>
<rscale>  0 0.29409962E+01</rscale>
<asrwt>0</asrwt>
<pdfrwt beam="1">0</pdfrwt>
<pdfrwt beam="2">0</pdfrwt>
<totfact> 0.18128486E+12</totfact>
</mgrwt>
</event>
<event>
 4    2  0.2130683E+006  0.2873783E+01  0.7546771E-02  0.2563636E+00
         22   -1    0    0    0    0  0.00000000000E+00  0.00000000000E+00  0.25621453335E+01  0.25621453335E+01  0.00000000000E+00 0. -1.
         22   -1    0    0    0    0 -0.00000000000E+00 -0.00000000000E+00 -0.32233346215E+01  0.32233346215E+01  0.00000000000E+00 0.  1.
          4    1    1    2  501    0  0.16505342774E+01 -0.23525237396E+01 -0.32604678579E+00  0.28922202289E+01  0.00000000000E+00 0. -1.
         -4    1    1    2    0  501 -0.16505342774E+01  0.23525237396E+01 -0.33514250215E+00  0.28932597261E+01  0.00000000000E+00 0.  1.
<mgrwt>
<rscale>  0 0.28737835E+01</rscale>
<asrwt>0</asrwt>
<pdfrwt beam="1">0</pdfrwt>
<pdfrwt beam="2">0</pdfrwt>
<totfact> 0.20622800E+12</totfact>
</mgrwt>
</event>
<event>
 4    2  0.2130683E+006  0.4513448E+01  0.7546771E-02  0.2188722E+00
         22   -1    0    0    0    0  0.00000000000E+00  0.00000000000E+00  0.11582864567E+02  0.11582864567E+02  0.00000000000E+00 0.  1.
         22   -1    0    0    0    0 -0.00000000000E+00 -0.00000000000E+00 -0.37639083476E+01  0.37639083476E+01  0.00000000000E+00 0. -1.
          4    1    1    2  501    0 -0.41140970479E+01  0.18561826999E+01 -0.16912350590E+01  0.48199050572E+01  0.00000000000E+00 0. -1.
         -4    1    1    2    0  501  0.41140970479E+01 -0.18561826999E+01  0.95101912780E+01  0.10526867857E+02  0.00000000000E+00 0.  1.
<mgrwt>
<rscale>  0 0.45134475E+01</rscale>
<asrwt>0</asrwt>
<pdfrwt beam="1">0</pdfrwt>
<pdfrwt beam="2">0</pdfrwt>
<totfact> 0.28633660E+11</totfact>
</mgrwt>
</event>
<event>
 4    2  0.2130683E+006  0.2194031E+01  0.7546771E-02  0.2861011E+00
         22   -1    0    0    0    0  0.00000000000E+00  0.00000000000E+00  0.31206531152E+00  0.31206531152E+00  0.00000000000E+00 0. -1.
         22   -1    0    0    0    0 -0.00000000000E+00 -0.00000000000E+00 -0.23481821446E+02  0.23481821446E+02  0.00000000000E+00 0.  1.
          4    1    1    2  501    0 -0.37375704376E+00  0.21619610628E+01 -0.18553346475E+02  0.18682623889E+02  0.00000000000E+00 0.  1.
         -4    1    1    2    0  501  0.37375704376E+00 -0.21619610628E+01 -0.46164096597E+01  0.51112628686E+01  0.00000000000E+00 0. -1.
<mgrwt>
<rscale>  0 0.21940305E+01</rscale>
<asrwt>0</asrwt>
<pdfrwt beam="1">0</pdfrwt>
<pdfrwt beam="2">0</pdfrwt>
<totfact> 0.20690369E+12</totfact>
</mgrwt>
</event>
<event>
 4    2  0.2130683E+006  0.2174292E+01  0.7546771E-02  0.2872245E+00
         22   -1    0    0    0    0  0.00000000000E+00  0.00000000000E+00  0.13934976366E+01  0.13934976366E+01  0.00000000000E+00 0.  1.
         22   -1    0    0    0    0 -0.00000000000E+00 -0.00000000000E+00 -0.38738935054E+01  0.38738935054E+01  0.00000000000E+00 0. -1.
          4    1    1    2  501    0  0.40358847117E+00  0.21365067784E+01 -0.21685402272E+01  0.30708486750E+01  0.00000000000E+00 0.  1.
         -4    1    1    2    0  501 -0.40358847117E+00 -0.21365067784E+01 -0.31185564166E+00  0.21965424670E+01  0.00000000000E+00 0. -1.
<mgrwt>
<rscale>  0 0.21742918E+01</rscale>
<asrwt>0</asrwt>
<pdfrwt beam="1">0</pdfrwt>
<pdfrwt beam="2">0</pdfrwt>
<totfact> 0.33610419E+12</totfact>
</mgrwt>
</event>
<event>
 4    2  0.2130683E+006  0.2691347E+01  0.7546771E-02  0.2629745E+00
         22   -1    0    0    0    0  0.00000000000E+00  0.00000000000E+00  0.35203363942E+01  0.35203363942E+01  0.00000000000E+00 0. -1.
         22   -1    0    0    0    0 -0.00000000000E+00 -0.00000000000E+00 -0.20641217044E+01  0.20641217044E+01  0.00000000000E+00 0.  1.
          4    1    1    2  501    0  0.24687011850E+01  0.10718491398E+01  0.88539306837E+00  0.28332431955E+01  0.00000000000E+00 0. -1.
         -4    1    1    2    0  501 -0.24687011850E+01 -0.10718491398E+01  0.57082162143E+00  0.27512149031E+01  0.00000000000E+00 0.  1.
<mgrwt>
<rscale>  0 0.26913465E+01</rscale>
<asrwt>0</asrwt>
<pdfrwt beam="1">0</pdfrwt>
<pdfrwt beam="2">0</pdfrwt>
<totfact> 0.23904624E+12</totfact>
</mgrwt>
</event>
<event>
 4    2  0.2130683E+006  0.6599306E+01  0.7546771E-02  0.1969773E+00
         22   -1    0    0    0    0  0.00000000000E+00  0.00000000000E+00  0.55175773905E+01  0.55175773905E+01  0.00000000000E+00 0.  1.
         22   -1    0    0    0    0 -0.00000000000E+00 -0.00000000000E+00 -0.11709417422E+02  0.11709417422E+02  0.00000000000E+00 0. -1.
          4    1    1    2  501    0 -0.62224541685E+01  0.21981581824E+01 -0.80132987901E+01  0.10380934099E+02  0.00000000000E+00 0. -1.
         -4    1    1    2    0  501  0.62224541685E+01 -0.21981581824E+01  0.18214587590E+01  0.68460607129E+01  0.00000000000E+00 0.  1.
<mgrwt>
<rscale>  0 0.65993057E+01</rscale>
<asrwt>0</asrwt>
<pdfrwt beam="1">0</pdfrwt>
<pdfrwt beam="2">0</pdfrwt>
<totfact> 0.17986927E+11</totfact>
</mgrwt>
</event>
<event>
 4    2  0.2130683E+006  0.3619326E+01  0.7546771E-02  0.2356558E+00
         22   -1    0    0    0    0  0.00000000000E+00  0.00000000000E+00  0.32914127276E+02  0.32914127276E+02  0.00000000000E+00 0.  1.
         22   -1    0    0    0    0 -0.00000000000E+00 -0.00000000000E+00 -0.23287968675E+01  0.23287968675E+01  0.00000000000E+00 0. -1.
          4    1    1    2  501    0  0.33417961716E+01 -0.13899341014E+01 -0.75254708617E+00  0.36967344476E+01  0.00000000000E+00 0. -1.
         -4    1    1    2    0  501 -0.33417961716E+01  0.13899341014E+01  0.31337877495E+02  0.31546189696E+02  0.00000000000E+00 0.  1.
<mgrwt>
<rscale>  0 0.36193257E+01</rscale>
<asrwt>0</asrwt>
<pdfrwt beam="1">0</pdfrwt>
<pdfrwt beam="2">0</pdfrwt>
<totfact> 0.13641282E+11</totfact>
</mgrwt>
</event>
<event>
 4    2  0.2130683E+006  0.2906703E+01  0.7546771E-02  0.2552511E+00
         22   -1    0    0    0    0  0.00000000000E+00  0.00000000000E+00  0.14899908441E+01  0.14899908441E+01  0.00000000000E+00 0.  1.
         22   -1    0    0    0    0 -0.00000000000E+00 -0.00000000000E+00 -0.61786517926E+01  0.61786517926E+01  0.00000000000E+00 0. -1.
          4    1    1    2  501    0  0.26980896864E+01  0.10813108865E+01 -0.34439919038E+01  0.45066618935E+01  0.00000000000E+00 0.  1.
         -4    1    1    2    0  501 -0.26980896864E+01 -0.10813108865E+01 -0.12446690447E+01  0.31619807432E+01  0.00000000000E+00 0. -1.
<mgrwt>
<rscale>  0 0.29067028E+01</rscale>
<asrwt>0</asrwt>
<pdfrwt beam="1">0</pdfrwt>
<pdfrwt beam="2">0</pdfrwt>
<totfact> 0.17912015E+12</totfact>
</mgrwt>
</event>
<event>
 4    2  0.2130683E+006  0.3208226E+01  0.7546771E-02  0.2460210E+00
         22   -1    0    0    0    0  0.00000000000E+00  0.00000000000E+00  0.11138222653E+02  0.11138222653E+02  0.00000000000E+00 0. -1.
         22   -1    0    0    0    0 -0.00000000000E+00 -0.00000000000E+00 -0.20258305022E+01  0.20258305022E+01  0.00000000000E+00 0.  1.
          4    1    1    2  501    0  0.30057578748E+01 -0.11216662302E+01 -0.29778208945E+00  0.32220164039E+01  0.00000000000E+00 0.  1.
         -4    1    1    2    0  501 -0.30057578748E+01  0.11216662302E+01  0.94101742403E+01  0.99420367514E+01  0.00000000000E+00 0. -1.
<mgrwt>
<rscale>  0 0.32082262E+01</rscale>
<asrwt>0</asrwt>
<pdfrwt beam="1">0</pdfrwt>
<pdfrwt beam="2">0</pdfrwt>
<totfact> 0.61838775E+11</totfact>
</mgrwt>
</event>
<event>
 4    2  0.2130683E+006  0.2734032E+01  0.7546771E-02  0.2613557E+00
         22   -1    0    0    0    0  0.00000000000E+00  0.00000000000E+00  0.93187496312E+01  0.93187496312E+01  0.00000000000E+00 0.  1.
         22   -1    0    0    0    0 -0.00000000000E+00 -0.00000000000E+00 -0.18254611888E+01  0.18254611888E+01  0.00000000000E+00 0. -1.
          4    1    1    2  501    0 -0.25563784005E+01  0.96946491957E+00 -0.42530690024E+00  0.27669150179E+01  0.00000000000E+00 0. -1.
         -4    1    1    2    0  501  0.25563784005E+01 -0.96946491957E+00  0.79185953427E+01  0.83772958022E+01  0.00000000000E+00 0.  1.
<mgrwt>
<rscale>  0 0.27340323E+01</rscale>
<asrwt>0</asrwt>
<pdfrwt beam="1">0</pdfrwt>
<pdfrwt beam="2">0</pdfrwt>
<totfact> 0.86581406E+11</totfact>
</mgrwt>
</event>
<event>
 4    2  0.2130683E+006  0.3334102E+01  0.7546771E-02  0.2426096E+00
         22   -1    0    0    0    0  0.00000000000E+00  0.00000000000E+00  0.11564156138E+02  0.11564156138E+02  0.00000000000E+00 0.  1.
         22   -1    0    0    0    0 -0.00000000000E+00 -0.00000000000E+00 -0.31196762131E+01  0.31196762131E+01  0.00000000000E+00 0. -1.
          4    1    1    2  501    0 -0.21050358062E+00 -0.33274496978E+01 -0.18846715520E+01  0.38299112402E+01  0.00000000000E+00 0. -1.
         -4    1    1    2    0  501  0.21050358062E+00  0.33274496978E+01  0.10329151477E+02  0.10853921111E+02  0.00000000000E+00 0.  1.
<mgrwt>
<rscale>  0 0.33341016E+01</rscale>
<asrwt>0</asrwt>
<pdfrwt beam="1">0</pdfrwt>
<pdfrwt beam="2">0</pdfrwt>
<totfact> 0.35750888E+11</totfact>
</mgrwt>
</event>
<event>
 4    2  0.2130683E+006  0.3905288E+01  0.7546771E-02  0.2295773E+00
         22   -1    0    0    0    0  0.00000000000E+00  0.00000000000E+00  0.21951975786E+01  0.21951975786E+01  0.00000000000E+00 0.  1.
         22   -1    0    0    0    0 -0.00000000000E+00 -0.00000000000E+00 -0.12858255804E+02  0.12858255804E+02  0.00000000000E+00 0. -1.
          4    1    1    2  501    0 -0.38198766652E+01  0.81228966715E+00 -0.10434632069E+02  0.11141490864E+02  0.00000000000E+00 0. -1.
         -4    1    1    2    0  501  0.38198766652E+01 -0.81228966715E+00 -0.22842615596E+00  0.39119625189E+01  0.00000000000E+00 0.  1.
<mgrwt>
<rscale>  0 0.39052877E+01</rscale>
<asrwt>0</asrwt>
<pdfrwt beam="1">0</pdfrwt>
<pdfrwt beam="2">0</pdfrwt>
<totfact> 0.47295290E+11</totfact>
</mgrwt>
</event>
<event>
 4    2  0.2130683E+006  0.2119530E+01  0.7546771E-02  0.2904465E+00
         22   -1    0    0    0    0  0.00000000000E+00  0.00000000000E+00  0.32477593930E+00  0.32477593930E+00  0.00000000000E+00 0.  1.
         22   -1    0    0    0    0 -0.00000000000E+00 -0.00000000000E+00 -0.19276449669E+02  0.19276449669E+02  0.00000000000E+00 0. -1.
          4    1    1    2  501    0  0.10962534641E+01 -0.18140107494E+01 -0.14684229307E+02  0.14836407820E+02  0.00000000000E+00 0. -1.
         -4    1    1    2    0  501 -0.10962534641E+01  0.18140107494E+01 -0.42674444228E+01  0.47648177885E+01  0.00000000000E+00 0.  1.
<mgrwt>
<rscale>  0 0.21195298E+01</rscale>
<asrwt>0</asrwt>
<pdfrwt beam="1">0</pdfrwt>
<pdfrwt beam="2">0</pdfrwt>
<totfact> 0.25322654E+12</totfact>
</mgrwt>
</event>
<event>
 4    2  0.2130683E+006  0.2482228E+01  0.7546771E-02  0.2716417E+00
         22   -1    0    0    0    0  0.00000000000E+00  0.00000000000E+00  0.23044807828E+02  0.23044807828E+02  0.00000000000E+00 0. -1.
         22   -1    0    0    0    0 -0.00000000000E+00 -0.00000000000E+00 -0.26754460201E+00  0.26754460201E+00  0.00000000000E+00 0.  1.
          4    1    1    2  501    0  0.24495415008E+01  0.40149958638E+00  0.11089576032E+02  0.11363984867E+02  0.00000000000E+00 0. -1.
         -4    1    1    2    0  501 -0.24495415008E+01 -0.40149958638E+00  0.11687687194E+02  0.11948367564E+02  0.00000000000E+00 0.  1.
<mgrwt>
<rscale>  0 0.24822279E+01</rscale>
<asrwt>0</asrwt>
<pdfrwt beam="1">0</pdfrwt>
<pdfrwt beam="2">0</pdfrwt>
<totfact> 0.25174256E+12</totfact>
</mgrwt>
</event>
<event>
 4    2  0.2130683E+006  0.2818065E+01  0.7546771E-02  0.2583000E+00
         22   -1    0    0    0    0  0.00000000000E+00  0.00000000000E+00  0.23527273956E+01  0.23527273956E+01  0.00000000000E+00 0.  1.
         22   -1    0    0    0    0 -0.00000000000E+00 -0.00000000000E+00 -0.97120682033E+01  0.97120682033E+01  0.00000000000E+00 0. -1.
          4    1    1    2  501    0  0.11899545172E+01  0.25545057407E+01 -0.85522978481E+01  0.90046260231E+01  0.00000000000E+00 0. -1.
         -4    1    1    2    0  501 -0.11899545172E+01 -0.25545057407E+01  0.11929570404E+01  0.30601695758E+01  0.00000000000E+00 0.  1.
<mgrwt>
<rscale>  0 0.28180652E+01</rscale>
<asrwt>0</asrwt>
<pdfrwt beam="1">0</pdfrwt>
<pdfrwt beam="2">0</pdfrwt>
<totfact> 0.61386774E+11</totfact>
</mgrwt>
</event>
<event>
 4    2  0.2130683E+006  0.4592950E+01  0.7546771E-02  0.2176510E+00
         22   -1    0    0    0    0  0.00000000000E+00  0.00000000000E+00  0.39764230931E+01  0.39764230931E+01  0.00000000000E+00 0. -1.
         22   -1    0    0    0    0 -0.00000000000E+00 -0.00000000000E+00 -0.61487090491E+01  0.61487090491E+01  0.00000000000E+00 0.  1.
          4    1    1    2  501    0 -0.32063276628E+01  0.32885639551E+01  0.78910153668E+00  0.46602436849E+01  0.00000000000E+00 0. -1.
         -4    1    1    2    0  501  0.32063276628E+01 -0.32885639551E+01 -0.29613874927E+01  0.54648884572E+01  0.00000000000E+00 0.  1.
<mgrwt>
<rscale>  0 0.45929500E+01</rscale>
<asrwt>0</asrwt>
<pdfrwt beam="1">0</pdfrwt>
<pdfrwt beam="2">0</pdfrwt>
<totfact> 0.57536142E+11</totfact>
</mgrwt>
</event>
<event>
 4    2  0.2130683E+006  0.5617063E+01  0.7546771E-02  0.2055834E+00
         22   -1    0    0    0    0  0.00000000000E+00  0.00000000000E+00  0.35447691309E+02  0.35447691309E+02  0.00000000000E+00 0. -1.
         22   -1    0    0    0    0 -0.00000000000E+00 -0.00000000000E+00 -0.16495452135E+01  0.16495452135E+01  0.00000000000E+00 0.  1.
          4    1    1    2  501    0 -0.44770193210E+01  0.33922988048E+01  0.43132248202E+01  0.70820407745E+01  0.00000000000E+00 0.  1.
         -4    1    1    2    0  501  0.44770193210E+01 -0.33922988048E+01  0.29484921275E+02  0.30015195748E+02  0.00000000000E+00 0. -1.
<mgrwt>
<rscale>  0 0.56170627E+01</rscale>
<asrwt>0</asrwt>
<pdfrwt beam="1">0</pdfrwt>
<pdfrwt beam="2">0</pdfrwt>
<totfact> 0.18482771E+11</totfact>
</mgrwt>
</event>
<event>
 4    2  0.2130683E+006  0.4221882E+01  0.7546771E-02  0.2236787E+00
         22   -1    0    0    0    0  0.00000000000E+00  0.00000000000E+00  0.18382594627E+02  0.18382594627E+02  0.00000000000E+00 0.  1.
         22   -1    0    0    0    0 -0.00000000000E+00 -0.00000000000E+00 -0.61935435181E+01  0.61935435181E+01  0.00000000000E+00 0. -1.
          4    1    1    2  501    0 -0.77953496916E+00 -0.41492905933E+01 -0.51907482350E+01  0.66909008687E+01  0.00000000000E+00 0. -1.
         -4    1    1    2    0  501  0.77953496916E+00  0.41492905933E+01  0.17379799344E+02  0.17885237277E+02  0.00000000000E+00 0.  1.
<mgrwt>
<rscale>  0 0.42218819E+01</rscale>
<asrwt>0</asrwt>
<pdfrwt beam="1">0</pdfrwt>
<pdfrwt beam="2">0</pdfrwt>
<totfact> 0.90033832E+10</totfact>
</mgrwt>
</event>
<event>
 4    2  0.2130683E+006  0.3059682E+01  0.7546771E-02  0.2503650E+00
         22   -1    0    0    0    0  0.00000000000E+00  0.00000000000E+00  0.10996332931E+01  0.10996332931E+01  0.00000000000E+00 0.  1.
         22   -1    0    0    0    0 -0.00000000000E+00 -0.00000000000E+00 -0.11751578887E+02  0.11751578887E+02  0.00000000000E+00 0. -1.
          4    1    1    2  501    0 -0.97805692634E+00  0.28991481065E+01 -0.86989557730E+01  0.92213603462E+01  0.00000000000E+00 0. -1.
         -4    1    1    2    0  501  0.97805692634E+00 -0.28991481065E+01 -0.19529898207E+01  0.36298518337E+01  0.00000000000E+00 0.  1.
<mgrwt>
<rscale>  0 0.30596822E+01</rscale>
<asrwt>0</asrwt>
<pdfrwt beam="1">0</pdfrwt>
<pdfrwt beam="2">0</pdfrwt>
<totfact> 0.11701720E+12</totfact>
</mgrwt>
</event>
<event>
 4    2  0.2130683E+006  0.2178351E+01  0.7546771E-02  0.2869919E+00
         22   -1    0    0    0    0  0.00000000000E+00  0.00000000000E+00  0.20014820990E+02  0.20014820990E+02  0.00000000000E+00 0.  1.
         22   -1    0    0    0    0 -0.00000000000E+00 -0.00000000000E+00 -0.46598544833E+00  0.46598544833E+00  0.00000000000E+00 0. -1.
          4    1    1    2  501    0  0.16301623884E+01 -0.14449171781E+01  0.25972327282E+01  0.33898131082E+01  0.00000000000E+00 0. -1.
         -4    1    1    2    0  501 -0.16301623884E+01  0.14449171781E+01  0.16951602813E+02  0.17090993330E+02  0.00000000000E+00 0.  1.
<mgrwt>
<rscale>  0 0.21783515E+01</rscale>
<asrwt>0</asrwt>
<pdfrwt beam="1">0</pdfrwt>
<pdfrwt beam="2">0</pdfrwt>
<totfact> 0.16097490E+12</totfact>
</mgrwt>
</event>
<event>
 4    2  0.2130683E+006  0.2487951E+01  0.7546771E-02  0.2713866E+00
         22   -1    0    0    0    0  0.00000000000E+00  0.00000000000E+00  0.26476050594E+01  0.26476050594E+01  0.00000000000E+00 0. -1.
         22   -1    0    0    0    0 -0.00000000000E+00 -0.00000000000E+00 -0.23817953297E+01  0.23817953297E+01  0.00000000000E+00 0.  1.
          4    1    1    2  501    0 -0.42971882440E+00 -0.24505595315E+01  0.47419423317E+00  0.25327377393E+01  0.00000000000E+00 0. -1.
         -4    1    1    2    0  501  0.42971882440E+00  0.24505595315E+01 -0.20838450340E+00  0.24966626498E+01  0.00000000000E+00 0.  1.
<mgrwt>
<rscale>  0 0.24879510E+01</rscale>
<asrwt>0</asrwt>
<pdfrwt beam="1">0</pdfrwt>
<pdfrwt beam="2">0</pdfrwt>
<totfact> 0.28246433E+12</totfact>
</mgrwt>
</event>
<event>
 4    2  0.2130683E+006  0.3125319E+01  0.7546771E-02  0.2484003E+00
         22   -1    0    0    0    0  0.00000000000E+00  0.00000000000E+00  0.13878502439E+02  0.13878502439E+02  0.00000000000E+00 0. -1.
         22   -1    0    0    0    0 -0.00000000000E+00 -0.00000000000E+00 -0.82959845218E+00  0.82959845218E+00  0.00000000000E+00 0.  1.
          4    1    1    2  501    0 -0.13665471895E-01 -0.31252886529E+01  0.36606729682E+01  0.48133296676E+01  0.00000000000E+00 0.  1.
         -4    1    1    2    0  501  0.13665471895E-01  0.31252886529E+01  0.93882310190E+01  0.98947712240E+01  0.00000000000E+00 0. -1.
<mgrwt>
<rscale>  0 0.31253185E+01</rscale>
<asrwt>0</asrwt>
<pdfrwt beam="1">0</pdfrwt>
<pdfrwt beam="2">0</pdfrwt>
<totfact> 0.13169813E+12</totfact>
</mgrwt>
</event>
<event>
 4    2  0.2130683E+006  0.2397963E+01  0.7546771E-02  0.2755299E+00
         22   -1    0    0    0    0  0.00000000000E+00  0.00000000000E+00  0.18777379346E+01  0.18777379346E+01  0.00000000000E+00 0. -1.
         22   -1    0    0    0    0 -0.00000000000E+00 -0.00000000000E+00 -0.31516915151E+01  0.31516915151E+01  0.00000000000E+00 0.  1.
          4    1    1    2  501    0 -0.18835530715E+01  0.14840663925E+01 -0.21350124127E+00  0.24074484440E+01  0.00000000000E+00 0. -1.
         -4    1    1    2    0  501  0.18835530715E+01 -0.14840663925E+01 -0.10604523392E+01  0.26219810057E+01  0.00000000000E+00 0.  1.
<mgrwt>
<rscale>  0 0.23979627E+01</rscale>
<asrwt>0</asrwt>
<pdfrwt beam="1">0</pdfrwt>
<pdfrwt beam="2">0</pdfrwt>
<totfact> 0.30359477E+12</totfact>
</mgrwt>
</event>
<event>
 4    2  0.2130683E+006  0.2019527E+01  0.7546771E-02  0.2967668E+00
         22   -1    0    0    0    0  0.00000000000E+00  0.00000000000E+00  0.20699466515E+00  0.20699466515E+00  0.00000000000E+00 0. -1.
         22   -1    0    0    0    0 -0.00000000000E+00 -0.00000000000E+00 -0.19954193962E+02  0.19954193962E+02  0.00000000000E+00 0.  1.
          4    1    1    2  501    0 -0.14637691197E+01  0.13913551849E+01 -0.11003829809E+02  0.11187616357E+02  0.00000000000E+00 0. -1.
         -4    1    1    2    0  501  0.14637691197E+01 -0.13913551849E+01 -0.87433694884E+01  0.89735722706E+01  0.00000000000E+00 0.  1.
<mgrwt>
<rscale>  0 0.20195270E+01</rscale>
<asrwt>0</asrwt>
<pdfrwt beam="1">0</pdfrwt>
<pdfrwt beam="2">0</pdfrwt>
<totfact> 0.40154458E+12</totfact>
</mgrwt>
</event>
<event>
 4    2  0.2130683E+006  0.2281664E+01  0.7546771E-02  0.2813386E+00
         22   -1    0    0    0    0  0.00000000000E+00  0.00000000000E+00  0.46926772431E+02  0.46926772431E+02  0.00000000000E+00 0.  1.
         22   -1    0    0    0    0 -0.00000000000E+00 -0.00000000000E+00 -0.12391529968E+00  0.12391529968E+00  0.00000000000E+00 0. -1.
          4    1    1    2  501    0  0.19768174553E+01  0.11393783360E+01  0.15788430668E+02  0.15952445994E+02  0.00000000000E+00 0. -1.
         -4    1    1    2    0  501 -0.19768174553E+01 -0.11393783360E+01  0.31014426464E+02  0.31098241737E+02  0.00000000000E+00 0.  1.
<mgrwt>
<rscale>  0 0.22816639E+01</rscale>
<asrwt>0</asrwt>
<pdfrwt beam="1">0</pdfrwt>
<pdfrwt beam="2">0</pdfrwt>
<totfact> 0.23844314E+12</totfact>
</mgrwt>
</event>
<event>
 4    2  0.2130683E+006  0.2244671E+01  0.7546771E-02  0.2833058E+00
         22   -1    0    0    0    0  0.00000000000E+00  0.00000000000E+00  0.13238693058E+02  0.13238693058E+02  0.00000000000E+00 0.  1.
         22   -1    0    0    0    0 -0.00000000000E+00 -0.00000000000E+00 -0.13934621381E+01  0.13934621381E+01  0.00000000000E+00 0. -1.
          4    1    1    2  501    0  0.16405196647E+01 -0.15320712461E+01 -0.31484056219E+00  0.22666432567E+01  0.00000000000E+00 0. -1.
         -4    1    1    2    0  501 -0.16405196647E+01  0.15320712461E+01  0.12160071482E+02  0.12365511940E+02  0.00000000000E+00 0.  1.
<mgrwt>
<rscale>  0 0.22446708E+01</rscale>
<asrwt>0</asrwt>
<pdfrwt beam="1">0</pdfrwt>
<pdfrwt beam="2">0</pdfrwt>
<totfact> 0.77112205E+11</totfact>
</mgrwt>
</event>
<event>
 4    2  0.2130683E+006  0.2216501E+01  0.7546771E-02  0.2848457E+00
         22   -1    0    0    0    0  0.00000000000E+00  0.00000000000E+00  0.36731012783E+01  0.36731012783E+01  0.00000000000E+00 0. -1.
         22   -1    0    0    0    0 -0.00000000000E+00 -0.00000000000E+00 -0.18002425617E+01  0.18002425617E+01  0.00000000000E+00 0.  1.
          4    1    1    2  501    0 -0.17032464436E+01 -0.14183897395E+01 -0.45100849608E+00  0.22619209898E+01  0.00000000000E+00 0.  1.
         -4    1    1    2    0  501  0.17032464436E+01  0.14183897395E+01  0.23238672127E+01  0.32114228502E+01  0.00000000000E+00 0. -1.
<mgrwt>
<rscale>  0 0.22165013E+01</rscale>
<asrwt>0</asrwt>
<pdfrwt beam="1">0</pdfrwt>
<pdfrwt beam="2">0</pdfrwt>
<totfact> 0.26638920E+12</totfact>
</mgrwt>
</event>
<event>
 4    2  0.2130683E+006  0.3649587E+01  0.7546771E-02  0.2349738E+00
         22   -1    0    0    0    0  0.00000000000E+00  0.00000000000E+00  0.31139453379E+02  0.31139453379E+02  0.00000000000E+00 0.  1.
         22   -1    0    0    0    0 -0.00000000000E+00 -0.00000000000E+00 -0.42978522359E+00  0.42978522359E+00  0.00000000000E+00 0. -1.
          4    1    1    2  501    0  0.13856418321E+01 -0.33763114030E+01  0.16444632190E+02  0.16844744279E+02  0.00000000000E+00 0. -1.
         -4    1    1    2    0  501 -0.13856418321E+01  0.33763114030E+01  0.14265035966E+02  0.14724494323E+02  0.00000000000E+00 0.  1.
<mgrwt>
<rscale>  0 0.36495865E+01</rscale>
<asrwt>0</asrwt>
<pdfrwt beam="1">0</pdfrwt>
<pdfrwt beam="2">0</pdfrwt>
<totfact> 0.10097689E+12</totfact>
</mgrwt>
</event>
<event>
 4    2  0.2130683E+006  0.2025959E+01  0.7546771E-02  0.2963420E+00
         22   -1    0    0    0    0  0.00000000000E+00  0.00000000000E+00  0.52966992357E+00  0.52966992357E+00  0.00000000000E+00 0. -1.
         22   -1    0    0    0    0 -0.00000000000E+00 -0.00000000000E+00 -0.21540183030E+02  0.21540183030E+02  0.00000000000E+00 0.  1.
          4    1    1    2  501    0  0.95100812631E+00 -0.17888809302E+01 -0.19334887698E+02  0.19440740566E+02  0.00000000000E+00 0.  1.
         -4    1    1    2    0  501 -0.95100812631E+00  0.17888809302E+01 -0.16756254077E+01  0.26291123874E+01  0.00000000000E+00 0. -1.
<mgrwt>
<rscale>  0 0.20259594E+01</rscale>
<asrwt>0</asrwt>
<pdfrwt beam="1">0</pdfrwt>
<pdfrwt beam="2">0</pdfrwt>
<totfact> 0.12707771E+12</totfact>
</mgrwt>
</event>
<event>
 4    2  0.2130683E+006  0.2108242E+01  0.7546771E-02  0.2911307E+00
         22   -1    0    0    0    0  0.00000000000E+00  0.00000000000E+00  0.20387716097E+00  0.20387716097E+00  0.00000000000E+00 0.  1.
         22   -1    0    0    0    0 -0.00000000000E+00 -0.00000000000E+00 -0.33512908765E+02  0.33512908765E+02  0.00000000000E+00 0. -1.
          4    1    1    2  501    0 -0.11101048745E+01 -0.17923039473E+01 -0.26620669089E+02  0.26704020465E+02  0.00000000000E+00 0. -1.
         -4    1    1    2    0  501  0.11101048745E+01  0.17923039473E+01 -0.66883625148E+01  0.70127654603E+01  0.00000000000E+00 0.  1.
<mgrwt>
<rscale>  0 0.21082425E+01</rscale>
<asrwt>0</asrwt>
<pdfrwt beam="1">0</pdfrwt>
<pdfrwt beam="2">0</pdfrwt>
<totfact> 0.21205694E+12</totfact>
</mgrwt>
</event>
<event>
 4    2  0.2130683E+006  0.2083113E+01  0.7546771E-02  0.2926797E+00
         22   -1    0    0    0    0  0.00000000000E+00  0.00000000000E+00  0.51248418949E+00  0.51248418949E+00  0.00000000000E+00 0.  1.
         22   -1    0    0    0    0 -0.00000000000E+00 -0.00000000000E+00 -0.16046920155E+02  0.16046920155E+02  0.00000000000E+00 0. -1.
          4    1    1    2  501    0 -0.56427227783E+00 -0.20052323639E+01 -0.13457613343E+02  0.13617882249E+02  0.00000000000E+00 0. -1.
         -4    1    1    2    0  501  0.56427227783E+00  0.20052323639E+01 -0.20768226221E+01  0.29415220958E+01  0.00000000000E+00 0.  1.
<mgrwt>
<rscale>  0 0.20831131E+01</rscale>
<asrwt>0</asrwt>
<pdfrwt beam="1">0</pdfrwt>
<pdfrwt beam="2">0</pdfrwt>
<totfact> 0.19017659E+12</totfact>
</mgrwt>
</event>
<event>
 4    2  0.2130683E+006  0.2003498E+01  0.7546771E-02  0.2978371E+00
         22   -1    0    0    0    0  0.00000000000E+00  0.00000000000E+00  0.81631311129E+00  0.81631311129E+00  0.00000000000E+00 0. -1.
         22   -1    0    0    0    0 -0.00000000000E+00 -0.00000000000E+00 -0.51712871586E+01  0.51712871586E+01  0.00000000000E+00 0.  1.
          4    1    1    2  501    0 -0.15880232484E+01 -0.12215511963E+01 -0.28410514222E+01  0.34764318412E+01  0.00000000000E+00 0. -1.
         -4    1    1    2    0  501  0.15880232484E+01  0.12215511963E+01 -0.15139226251E+01  0.25111684287E+01  0.00000000000E+00 0.  1.
<mgrwt>
<rscale>  0 0.20034982E+01</rscale>
<asrwt>0</asrwt>
<pdfrwt beam="1">0</pdfrwt>
<pdfrwt beam="2">0</pdfrwt>
<totfact> 0.44046786E+12</totfact>
</mgrwt>
</event>
<event>
 4    2  0.2130683E+006  0.2394636E+01  0.7546771E-02  0.2756886E+00
         22   -1    0    0    0    0  0.00000000000E+00  0.00000000000E+00  0.22142859920E+02  0.22142859920E+02  0.00000000000E+00 0. -1.
         22   -1    0    0    0    0 -0.00000000000E+00 -0.00000000000E+00 -0.98081189327E+00  0.98081189327E+00  0.00000000000E+00 0.  1.
          4    1    1    2  501    0 -0.17865796206E-01 -0.23945698444E+01  0.66230254970E+00  0.24845379034E+01  0.00000000000E+00 0.  1.
         -4    1    1    2    0  501  0.17865796206E-01  0.23945698444E+01  0.20499745477E+02  0.20639133910E+02  0.00000000000E+00 0. -1.
<mgrwt>
<rscale>  0 0.23946365E+01</rscale>
<asrwt>0</asrwt>
<pdfrwt beam="1">0</pdfrwt>
<pdfrwt beam="2">0</pdfrwt>
<totfact> 0.60981499E+11</totfact>
</mgrwt>
</event>
<event>
 4    2  0.2130683E+006  0.2579631E+01  0.7546771E-02  0.2674431E+00
         22   -1    0    0    0    0  0.00000000000E+00  0.00000000000E+00  0.32040250895E+00  0.32040250895E+00  0.00000000000E+00 0.  1.
         22   -1    0    0    0    0 -0.00000000000E+00 -0.00000000000E+00 -0.21677458142E+02  0.21677458142E+02  0.00000000000E+00 0. -1.
          4    1    1    2  501    0  0.25515374856E+01 -0.37967526563E+00 -0.84271099813E+01  0.88130970428E+01  0.00000000000E+00 0.  1.
         -4    1    1    2    0  501 -0.25515374856E+01  0.37967526563E+00 -0.12929945651E+02  0.13184763608E+02  0.00000000000E+00 0. -1.
<mgrwt>
<rscale>  0 0.25796311E+01</rscale>
<asrwt>0</asrwt>
<pdfrwt beam="1">0</pdfrwt>
<pdfrwt beam="2">0</pdfrwt>
<totfact> 0.22207808E+12</totfact>
</mgrwt>
</event>
<event>
 4    2  0.2130683E+006  0.2571627E+01  0.7546771E-02  0.2677770E+00
         22   -1    0    0    0    0  0.00000000000E+00  0.00000000000E+00  0.71459249194E+01  0.71459249194E+01  0.00000000000E+00 0.  1.
         22   -1    0    0    0    0 -0.00000000000E+00 -0.00000000000E+00 -0.10657593266E+01  0.10657593266E+01  0.00000000000E+00 0. -1.
          4    1    1    2  501    0 -0.25383682401E+01  0.41225467024E+00  0.15503768077E+01  0.30028212537E+01  0.00000000000E+00 0. -1.
         -4    1    1    2    0  501  0.25383682401E+01 -0.41225467024E+00  0.45297887851E+01  0.52088629923E+01  0.00000000000E+00 0.  1.
<mgrwt>
<rscale>  0 0.25716274E+01</rscale>
<asrwt>0</asrwt>
<pdfrwt beam="1">0</pdfrwt>
<pdfrwt beam="2">0</pdfrwt>
<totfact> 0.22110426E+12</totfact>
</mgrwt>
</event>
<event>
 4    2  0.2130683E+006  0.2240071E+01  0.7546771E-02  0.2835547E+00
         22   -1    0    0    0    0  0.00000000000E+00  0.00000000000E+00  0.32253563430E+01  0.32253563430E+01  0.00000000000E+00 0. -1.
         22   -1    0    0    0    0 -0.00000000000E+00 -0.00000000000E+00 -0.18688829731E+01  0.18688829731E+01  0.00000000000E+00 0.  1.
          4    1    1    2  501    0 -0.18526105138E+01 -0.12592668148E+01 -0.36433886848E+00  0.22695068710E+01  0.00000000000E+00 0.  1.
         -4    1    1    2    0  501  0.18526105138E+01  0.12592668148E+01  0.17208122384E+01  0.28247324451E+01  0.00000000000E+00 0. -1.
<mgrwt>
<rscale>  0 0.22400711E+01</rscale>
<asrwt>0</asrwt>
<pdfrwt beam="1">0</pdfrwt>
<pdfrwt beam="2">0</pdfrwt>
<totfact> 0.29711097E+12</totfact>
</mgrwt>
</event>
<event>
 4    2  0.2130683E+006  0.2260306E+01  0.7546771E-02  0.2824668E+00
         22   -1    0    0    0    0  0.00000000000E+00  0.00000000000E+00  0.82094922524E+00  0.82094922524E+00  0.00000000000E+00 0.  1.
         22   -1    0    0    0    0 -0.00000000000E+00 -0.00000000000E+00 -0.10378741823E+02  0.10378741823E+02  0.00000000000E+00 0. -1.
          4    1    1    2  501    0  0.87789516594E+00 -0.20828541921E+01 -0.83222484824E+01  0.86237347658E+01  0.00000000000E+00 0. -1.
         -4    1    1    2    0  501 -0.87789516594E+00  0.20828541921E+01 -0.12355441152E+01  0.25759562823E+01  0.00000000000E+00 0.  1.
<mgrwt>
<rscale>  0 0.22603056E+01</rscale>
<asrwt>0</asrwt>
<pdfrwt beam="1">0</pdfrwt>
<pdfrwt beam="2">0</pdfrwt>
<totfact> 0.18994324E+12</totfact>
</mgrwt>
</event>
<event>
 4    2  0.2130683E+006  0.2824081E+01  0.7546771E-02  0.2580876E+00
         22   -1    0    0    0    0  0.00000000000E+00  0.00000000000E+00  0.26871580809E+01  0.26871580809E+01  0.00000000000E+00 0. -1.
         22   -1    0    0    0    0 -0.00000000000E+00 -0.00000000000E+00 -0.29976172303E+01  0.29976172303E+01  0.00000000000E+00 0.  1.
          4    1    1    2  501    0 -0.17302098281E+01 -0.22319961046E+01 -0.43785465717E+00  0.28578224860E+01  0.00000000000E+00 0. -1.
         -4    1    1    2    0  501  0.17302098281E+01  0.22319961046E+01  0.12739550779E+00  0.28269528252E+01  0.00000000000E+00 0.  1.
<mgrwt>
<rscale>  0 0.28240809E+01</rscale>
<asrwt>0</asrwt>
<pdfrwt beam="1">0</pdfrwt>
<pdfrwt beam="2">0</pdfrwt>
<totfact> 0.21238239E+12</totfact>
</mgrwt>
</event>
<event>
 4    2  0.2130683E+006  0.2693716E+01  0.7546771E-02  0.2628834E+00
         22   -1    0    0    0    0  0.00000000000E+00  0.00000000000E+00  0.12093064271E+01  0.12093064271E+01  0.00000000000E+00 0. -1.
         22   -1    0    0    0    0 -0.00000000000E+00 -0.00000000000E+00 -0.32036475385E+02  0.32036475385E+02  0.00000000000E+00 0.  1.
          4    1    1    2  501    0 -0.25710431673E+01  0.80364298675E+00 -0.30399160753E+02  0.30518274517E+02  0.00000000000E+00 0.  1.
         -4    1    1    2    0  501  0.25710431673E+01 -0.80364298675E+00 -0.42800820437E+00  0.27275072945E+01  0.00000000000E+00 0. -1.
<mgrwt>
<rscale>  0 0.26937158E+01</rscale>
<asrwt>0</asrwt>
<pdfrwt beam="1">0</pdfrwt>
<pdfrwt beam="2">0</pdfrwt>
<totfact> 0.30068637E+11</totfact>
</mgrwt>
</event>
<event>
 4    2  0.2130683E+006  0.2134873E+01  0.7546771E-02  0.2895277E+00
         22   -1    0    0    0    0  0.00000000000E+00  0.00000000000E+00  0.95374790953E+00  0.95374790953E+00  0.00000000000E+00 0. -1.
         22   -1    0    0    0    0 -0.00000000000E+00 -0.00000000000E+00 -0.62213517449E+01  0.62213517449E+01  0.00000000000E+00 0.  1.
          4    1    1    2  501    0 -0.68715950111E+00  0.20212602869E+01 -0.43613706656E+01  0.48558454887E+01  0.00000000000E+00 0.  1.
         -4    1    1    2    0  501  0.68715950111E+00 -0.20212602869E+01 -0.90623316982E+00  0.23192541658E+01  0.00000000000E+00 0. -1.
<mgrwt>
<rscale>  0 0.21348727E+01</rscale>
<asrwt>0</asrwt>
<pdfrwt beam="1">0</pdfrwt>
<pdfrwt beam="2">0</pdfrwt>
<totfact> 0.29615356E+12</totfact>
</mgrwt>
</event>
<event>
 4    2  0.2130683E+006  0.2468105E+01  0.7546771E-02  0.2722761E+00
         22   -1    0    0    0    0  0.00000000000E+00  0.00000000000E+00  0.48580996578E+01  0.48580996578E+01  0.00000000000E+00 0. -1.
         22   -1    0    0    0    0 -0.00000000000E+00 -0.00000000000E+00 -0.18108934747E+01  0.18108934747E+01  0.00000000000E+00 0.  1.
          4    1    1    2  501    0  0.13453309623E+01 -0.20692092951E+01 -0.32571311618E+00  0.24895042757E+01  0.00000000000E+00 0.  1.
         -4    1    1    2    0  501 -0.13453309623E+01  0.20692092951E+01  0.33729192993E+01  0.41794888568E+01  0.00000000000E+00 0. -1.
<mgrwt>
<rscale>  0 0.24681050E+01</rscale>
<asrwt>0</asrwt>
<pdfrwt beam="1">0</pdfrwt>
<pdfrwt beam="2">0</pdfrwt>
<totfact> 0.19031028E+12</totfact>
</mgrwt>
</event>
<event>
 4    2  0.2130683E+006  0.4010698E+01  0.7546771E-02  0.2275254E+00
         22   -1    0    0    0    0  0.00000000000E+00  0.00000000000E+00  0.49724510014E+02  0.49724510014E+02  0.00000000000E+00 0. -1.
         22   -1    0    0    0    0 -0.00000000000E+00 -0.00000000000E+00 -0.13677325287E+01  0.13677325287E+01  0.00000000000E+00 0.  1.
          4    1    1    2  501    0  0.14557219429E+01 -0.37371875050E+01  0.18568693903E+01  0.44196901199E+01  0.00000000000E+00 0.  1.
         -4    1    1    2    0  501 -0.14557219429E+01  0.37371875050E+01  0.46499908094E+02  0.46672552422E+02  0.00000000000E+00 0. -1.
<mgrwt>
<rscale>  0 0.40106978E+01</rscale>
<asrwt>0</asrwt>
<pdfrwt beam="1">0</pdfrwt>
<pdfrwt beam="2">0</pdfrwt>
<totfact> 0.14755568E+11</totfact>
</mgrwt>
</event>
<event>
 4    2  0.2130683E+006  0.3678806E+01  0.7546771E-02  0.2343245E+00
         22   -1    0    0    0    0  0.00000000000E+00  0.00000000000E+00  0.13266612976E+01  0.13266612976E+01  0.00000000000E+00 0. -1.
         22   -1    0    0    0    0 -0.00000000000E+00 -0.00000000000E+00 -0.13331981934E+02  0.13331981934E+02  0.00000000000E+00 0.  1.
          4    1    1    2  501    0  0.17895177141E+01  0.32142248139E+01 -0.95543807608E+01  0.10238154449E+02  0.00000000000E+00 0.  1.
         -4    1    1    2    0  501 -0.17895177141E+01 -0.32142248139E+01 -0.24509398760E+01  0.44204887828E+01  0.00000000000E+00 0. -1.
<mgrwt>
<rscale>  0 0.36788062E+01</rscale>
<asrwt>0</asrwt>
<pdfrwt beam="1">0</pdfrwt>
<pdfrwt beam="2">0</pdfrwt>
<totfact> 0.80894516E+11</totfact>
</mgrwt>
</event>
<event>
 4    2  0.2130683E+006  0.2149060E+01  0.7546771E-02  0.2886894E+00
         22   -1    0    0    0    0  0.00000000000E+00  0.00000000000E+00  0.80970978314E+01  0.80970978314E+01  0.00000000000E+00 0.  1.
         22   -1    0    0    0    0 -0.00000000000E+00 -0.00000000000E+00 -0.97483502411E+00  0.97483502411E+00  0.00000000000E+00 0. -1.
          4    1    1    2  501    0 -0.81257986643E+00  0.19895156819E+01  0.63942213779E+00  0.22421684500E+01  0.00000000000E+00 0. -1.
         -4    1    1    2    0  501  0.81257986643E+00 -0.19895156819E+01  0.64828406695E+01  0.68297644055E+01  0.00000000000E+00 0.  1.
<mgrwt>
<rscale>  0 0.21490600E+01</rscale>
<asrwt>0</asrwt>
<pdfrwt beam="1">0</pdfrwt>
<pdfrwt beam="2">0</pdfrwt>
<totfact> 0.21072711E+12</totfact>
</mgrwt>
</event>
<event>
 4    2  0.2130683E+006  0.2701087E+01  0.7546771E-02  0.2626009E+00
         22   -1    0    0    0    0  0.00000000000E+00  0.00000000000E+00  0.35541033550E+00  0.35541033550E+00  0.00000000000E+00 0.  1.
         22   -1    0    0    0    0 -0.00000000000E+00 -0.00000000000E+00 -0.24558168258E+02  0.24558168258E+02  0.00000000000E+00 0. -1.
          4    1    1    2  501    0  0.27009054008E+01  0.31357053952E-01 -0.70551352143E+01  0.75545222311E+01  0.00000000000E+00 0.  1.
         -4    1    1    2    0  501 -0.27009054008E+01 -0.31357053952E-01 -0.17147622709E+02  0.17359056363E+02  0.00000000000E+00 0. -1.
<mgrwt>
<rscale>  0 0.27010874E+01</rscale>
<asrwt>0</asrwt>
<pdfrwt beam="1">0</pdfrwt>
<pdfrwt beam="2">0</pdfrwt>
<totfact> 0.16899535E+12</totfact>
</mgrwt>
</event>
<event>
 4    2  0.2130683E+006  0.2338781E+01  0.7546771E-02  0.2784176E+00
         22   -1    0    0    0    0  0.00000000000E+00  0.00000000000E+00  0.15460037557E+02  0.15460037557E+02  0.00000000000E+00 0.  1.
         22   -1    0    0    0    0 -0.00000000000E+00 -0.00000000000E+00 -0.52175799810E+00  0.52175799810E+00  0.00000000000E+00 0. -1.
          4    1    1    2  501    0 -0.17915145904E+01 -0.15034539479E+01  0.29354697914E+01  0.37532494184E+01  0.00000000000E+00 0. -1.
         -4    1    1    2    0  501  0.17915145904E+01  0.15034539479E+01  0.12002809768E+02  0.12228546137E+02  0.00000000000E+00 0.  1.
<mgrwt>
<rscale>  0 0.23387814E+01</rscale>
<asrwt>0</asrwt>
<pdfrwt beam="1">0</pdfrwt>
<pdfrwt beam="2">0</pdfrwt>
<totfact> 0.19513587E+12</totfact>
</mgrwt>
</event>
<event>
 4    2  0.2130683E+006  0.2173384E+01  0.7546771E-02  0.2872766E+00
         22   -1    0    0    0    0  0.00000000000E+00  0.00000000000E+00  0.45457876085E+01  0.45457876085E+01  0.00000000000E+00 0.  1.
         22   -1    0    0    0    0 -0.00000000000E+00 -0.00000000000E+00 -0.10973713857E+01  0.10973713857E+01  0.00000000000E+00 0. -1.
          4    1    1    2  501    0  0.12812689229E+01 -0.17555480059E+01  0.10741009084E+01  0.24243126068E+01  0.00000000000E+00 0. -1.
         -4    1    1    2    0  501 -0.12812689229E+01  0.17555480059E+01  0.23743153144E+01  0.32188463874E+01  0.00000000000E+00 0.  1.
<mgrwt>
<rscale>  0 0.21733842E+01</rscale>
<asrwt>0</asrwt>
<pdfrwt beam="1">0</pdfrwt>
<pdfrwt beam="2">0</pdfrwt>
<totfact> 0.36607522E+12</totfact>
</mgrwt>
</event>
<event>
 4    2  0.2130683E+006  0.2071580E+01  0.7546771E-02  0.2934028E+00
         22   -1    0    0    0    0  0.00000000000E+00  0.00000000000E+00  0.12226310853E+01  0.12226310853E+01  0.00000000000E+00 0.  1.
         22   -1    0    0    0    0 -0.00000000000E+00 -0.00000000000E+00 -0.54507833076E+01  0.54507833076E+01  0.00000000000E+00 0. -1.
          4    1    1    2  501    0  0.17554702207E+01  0.10998952399E+01 -0.41050989277E+01  0.45981825149E+01  0.00000000000E+00 0. -1.
         -4    1    1    2    0  501 -0.17554702207E+01 -0.10998952399E+01 -0.12305329455E+00  0.20752318780E+01  0.00000000000E+00 0.  1.
<mgrwt>
<rscale>  0 0.20715804E+01</rscale>
<asrwt>0</asrwt>
<pdfrwt beam="1">0</pdfrwt>
<pdfrwt beam="2">0</pdfrwt>
<totfact> 0.26089319E+12</totfact>
</mgrwt>
</event>
<event>
 4    2  0.2130683E+006  0.2270160E+01  0.7546771E-02  0.2819438E+00
         22   -1    0    0    0    0  0.00000000000E+00  0.00000000000E+00  0.88368021872E+01  0.88368021872E+01  0.00000000000E+00 0.  1.
         22   -1    0    0    0    0 -0.00000000000E+00 -0.00000000000E+00 -0.84338585853E+00  0.84338585853E+00  0.00000000000E+00 0. -1.
          4    1    1    2  501    0  0.67703547583E+00  0.21668526071E+01  0.13083812103E+01  0.26202077490E+01  0.00000000000E+00 0. -1.
         -4    1    1    2    0  501 -0.67703547583E+00 -0.21668526071E+01  0.66850351183E+01  0.70599802967E+01  0.00000000000E+00 0.  1.
<mgrwt>
<rscale>  0 0.22701602E+01</rscale>
<asrwt>0</asrwt>
<pdfrwt beam="1">0</pdfrwt>
<pdfrwt beam="2">0</pdfrwt>
<totfact> 0.22374005E+12</totfact>
</mgrwt>
</event>
<event>
 4    2  0.2130683E+006  0.2368908E+01  0.7546771E-02  0.2769306E+00
         22   -1    0    0    0    0  0.00000000000E+00  0.00000000000E+00  0.19343472202E+00  0.19343472202E+00  0.00000000000E+00 0.  1.
         22   -1    0    0    0    0 -0.00000000000E+00 -0.00000000000E+00 -0.29053806023E+02  0.29053806023E+02  0.00000000000E+00 0. -1.
          4    1    1    2  501    0 -0.47952667010E+00 -0.23198657384E+01 -0.13868470234E+02  0.14069335077E+02  0.00000000000E+00 0.  1.
         -4    1    1    2    0  501  0.47952667010E+00  0.23198657384E+01 -0.14991901068E+02  0.15177905669E+02  0.00000000000E+00 0. -1.
<mgrwt>
<rscale>  0 0.23689075E+01</rscale>
<asrwt>0</asrwt>
<pdfrwt beam="1">0</pdfrwt>
<pdfrwt beam="2">0</pdfrwt>
<totfact> 0.26987371E+12</totfact>
</mgrwt>
</event>
<event>
 4    2  0.2130683E+006  0.3379066E+01  0.7546771E-02  0.2414454E+00
         22   -1    0    0    0    0  0.00000000000E+00  0.00000000000E+00  0.76250045290E+01  0.76250045290E+01  0.00000000000E+00 0.  1.
         22   -1    0    0    0    0 -0.00000000000E+00 -0.00000000000E+00 -0.18528601884E+01  0.18528601884E+01  0.00000000000E+00 0. -1.
          4    1    1    2  501    0 -0.23953360744E+01 -0.23833703327E+01  0.81057552095E+00  0.34749275859E+01  0.00000000000E+00 0. -1.
         -4    1    1    2    0  501  0.23953360744E+01  0.23833703327E+01  0.49615688196E+01  0.60029371315E+01  0.00000000000E+00 0.  1.
<mgrwt>
<rscale>  0 0.33790663E+01</rscale>
<asrwt>0</asrwt>
<pdfrwt beam="1">0</pdfrwt>
<pdfrwt beam="2">0</pdfrwt>
<totfact> 0.10834492E+12</totfact>
</mgrwt>
</event>
<event>
 4    2  0.2130683E+006  0.2512381E+01  0.7546771E-02  0.2703097E+00
         22   -1    0    0    0    0  0.00000000000E+00  0.00000000000E+00  0.27353180090E+01  0.27353180090E+01  0.00000000000E+00 0.  1.
         22   -1    0    0    0    0 -0.00000000000E+00 -0.00000000000E+00 -0.25076384910E+01  0.25076384910E+01  0.00000000000E+00 0. -1.
          4    1    1    2  501    0  0.15562348463E+01  0.19723568353E+01 -0.62654127084E+00  0.25893266203E+01  0.00000000000E+00 0. -1.
         -4    1    1    2    0  501 -0.15562348463E+01 -0.19723568353E+01  0.85422078882E+00  0.26536298797E+01  0.00000000000E+00 0.  1.
<mgrwt>
<rscale>  0 0.25123810E+01</rscale>
<asrwt>0</asrwt>
<pdfrwt beam="1">0</pdfrwt>
<pdfrwt beam="2">0</pdfrwt>
<totfact> 0.25613909E+12</totfact>
</mgrwt>
</event>
<event>
 4    2  0.2130683E+006  0.2386641E+01  0.7546771E-02  0.2760719E+00
         22   -1    0    0    0    0  0.00000000000E+00  0.00000000000E+00  0.11576127310E+02  0.11576127310E+02  0.00000000000E+00 0.  1.
         22   -1    0    0    0    0 -0.00000000000E+00 -0.00000000000E+00 -0.28469793122E+01  0.28469793122E+01  0.00000000000E+00 0. -1.
          4    1    1    2  501    0 -0.54330380806E+00 -0.23239786833E+01 -0.21942416043E+01  0.32420290199E+01  0.00000000000E+00 0. -1.
         -4    1    1    2    0  501  0.54330380806E+00  0.23239786833E+01  0.10923389602E+02  0.11181077602E+02  0.00000000000E+00 0.  1.
<mgrwt>
<rscale>  0 0.23866411E+01</rscale>
<asrwt>0</asrwt>
<pdfrwt beam="1">0</pdfrwt>
<pdfrwt beam="2">0</pdfrwt>
<totfact> 0.39730249E+11</totfact>
</mgrwt>
</event>
<event>
 4    2  0.2130683E+006  0.2227768E+01  0.7546771E-02  0.2842253E+00
         22   -1    0    0    0    0  0.00000000000E+00  0.00000000000E+00  0.68629028477E+00  0.68629028477E+00  0.00000000000E+00 0. -1.
         22   -1    0    0    0    0 -0.00000000000E+00 -0.00000000000E+00 -0.90399089543E+01  0.90399089543E+01  0.00000000000E+00 0.  1.
          4    1    1    2  501    0  0.21070755303E+01  0.72331291394E+00 -0.63518748691E+01  0.67312155822E+01  0.00000000000E+00 0.  1.
         -4    1    1    2    0  501 -0.21070755303E+01 -0.72331291394E+00 -0.20017438005E+01  0.29949836568E+01  0.00000000000E+00 0. -1.
<mgrwt>
<rscale>  0 0.22277677E+01</rscale>
<asrwt>0</asrwt>
<pdfrwt beam="1">0</pdfrwt>
<pdfrwt beam="2">0</pdfrwt>
<totfact> 0.27516352E+12</totfact>
</mgrwt>
</event>
<event>
 4    2  0.2130683E+006  0.2222530E+01  0.7546771E-02  0.2845130E+00
         22   -1    0    0    0    0  0.00000000000E+00  0.00000000000E+00  0.94585027047E+00  0.94585027047E+00  0.00000000000E+00 0. -1.
         22   -1    0    0    0    0 -0.00000000000E+00 -0.00000000000E+00 -0.10158481487E+02  0.10158481487E+02  0.00000000000E+00 0.  1.
          4    1    1    2  501    0  0.86227325196E+00  0.20484443826E+01 -0.84765542968E+01  0.87630823513E+01  0.00000000000E+00 0. -1.
         -4    1    1    2    0  501 -0.86227325196E+00 -0.20484443826E+01 -0.73607691955E+00  0.23412494060E+01  0.00000000000E+00 0.  1.
<mgrwt>
<rscale>  0 0.22225300E+01</rscale>
<asrwt>0</asrwt>
<pdfrwt beam="1">0</pdfrwt>
<pdfrwt beam="2">0</pdfrwt>
<totfact> 0.16589324E+12</totfact>
</mgrwt>
</event>
<event>
 4    2  0.2130683E+006  0.2827183E+01  0.7546771E-02  0.2579784E+00
         22   -1    0    0    0    0  0.00000000000E+00  0.00000000000E+00  0.44931432735E+01  0.44931432735E+01  0.00000000000E+00 0. -1.
         22   -1    0    0    0    0 -0.00000000000E+00 -0.00000000000E+00 -0.18850055924E+01  0.18850055924E+01  0.00000000000E+00 0.  1.
          4    1    1    2  501    0 -0.27761507212E+01 -0.53474473040E+00  0.54753846828E+00  0.28797158068E+01  0.00000000000E+00 0.  1.
         -4    1    1    2    0  501  0.27761507212E+01  0.53474473040E+00  0.20605992128E+01  0.34984330591E+01  0.00000000000E+00 0. -1.
<mgrwt>
<rscale>  0 0.28271832E+01</rscale>
<asrwt>0</asrwt>
<pdfrwt beam="1">0</pdfrwt>
<pdfrwt beam="2">0</pdfrwt>
<totfact> 0.19926076E+12</totfact>
</mgrwt>
</event>
<event>
 4    2  0.2130683E+006  0.3654373E+01  0.7546771E-02  0.2348668E+00
         22   -1    0    0    0    0  0.00000000000E+00  0.00000000000E+00  0.74576396546E+01  0.74576396546E+01  0.00000000000E+00 0. -1.
         22   -1    0    0    0    0 -0.00000000000E+00 -0.00000000000E+00 -0.17924766693E+01  0.17924766693E+01  0.00000000000E+00 0.  1.
          4    1    1    2  501    0  0.26631838243E+01 -0.25023782882E+01  0.29779181703E+01  0.47140684984E+01  0.00000000000E+00 0. -1.
         -4    1    1    2    0  501 -0.26631838243E+01  0.25023782882E+01  0.26872448150E+01  0.45360478254E+01  0.00000000000E+00 0.  1.
<mgrwt>
<rscale>  0 0.36543734E+01</rscale>
<asrwt>0</asrwt>
<pdfrwt beam="1">0</pdfrwt>
<pdfrwt beam="2">0</pdfrwt>
<totfact> 0.11560817E+12</totfact>
</mgrwt>
</event>
<event>
 4    2  0.2130683E+006  0.3514281E+01  0.7546771E-02  0.2381022E+00
         22   -1    0    0    0    0  0.00000000000E+00  0.00000000000E+00  0.73183760757E+01  0.73183760757E+01  0.00000000000E+00 0.  1.
         22   -1    0    0    0    0 -0.00000000000E+00 -0.00000000000E+00 -0.19935949837E+01  0.19935949837E+01  0.00000000000E+00 0. -1.
          4    1    1    2  501    0  0.23050520865E+01 -0.26527167104E+01  0.83815306215E+00  0.36128481317E+01  0.00000000000E+00 0. -1.
         -4    1    1    2    0  501 -0.23050520865E+01  0.26527167104E+01  0.44866280299E+01  0.56991229277E+01  0.00000000000E+00 0.  1.
<mgrwt>
<rscale>  0 0.35142810E+01</rscale>
<asrwt>0</asrwt>
<pdfrwt beam="1">0</pdfrwt>
<pdfrwt beam="2">0</pdfrwt>
<totfact> 0.10456988E+12</totfact>
</mgrwt>
</event>
<event>
 4    2  0.2130683E+006  0.2273231E+01  0.7546771E-02  0.2817816E+00
         22   -1    0    0    0    0  0.00000000000E+00  0.00000000000E+00  0.42795241256E+01  0.42795241256E+01  0.00000000000E+00 0.  1.
         22   -1    0    0    0    0 -0.00000000000E+00 -0.00000000000E+00 -0.42646864887E+01  0.42646864887E+01  0.00000000000E+00 0. -1.
          4    1    1    2  501    0 -0.21607664458E+01 -0.70616502122E+00 -0.36096639150E+01  0.42658239825E+01  0.00000000000E+00 0. -1.
         -4    1    1    2    0  501  0.21607664458E+01  0.70616502122E+00  0.36245015520E+01  0.42783866318E+01  0.00000000000E+00 0.  1.
<mgrwt>
<rscale>  0 0.22732313E+01</rscale>
<asrwt>0</asrwt>
<pdfrwt beam="1">0</pdfrwt>
<pdfrwt beam="2">0</pdfrwt>
<totfact> 0.81398616E+11</totfact>
</mgrwt>
</event>
<event>
 4    2  0.2130683E+006  0.2198056E+01  0.7546771E-02  0.2858744E+00
         22   -1    0    0    0    0  0.00000000000E+00  0.00000000000E+00  0.30808567466E+01  0.30808567466E+01  0.00000000000E+00 0.  1.
         22   -1    0    0    0    0 -0.00000000000E+00 -0.00000000000E+00 -0.22424107970E+01  0.22424107970E+01  0.00000000000E+00 0. -1.
          4    1    1    2  501    0  0.88460607733E+00 -0.20121934740E+01 -0.10402069157E+01  0.24317649796E+01  0.00000000000E+00 0. -1.
         -4    1    1    2    0  501 -0.88460607733E+00  0.20121934740E+01  0.18786528653E+01  0.28915025639E+01  0.00000000000E+00 0.  1.
<mgrwt>
<rscale>  0 0.21980561E+01</rscale>
<asrwt>0</asrwt>
<pdfrwt beam="1">0</pdfrwt>
<pdfrwt beam="2">0</pdfrwt>
<totfact> 0.25383878E+12</totfact>
</mgrwt>
</event>
<event>
 4    2  0.2130683E+006  0.2507070E+01  0.7546771E-02  0.2705421E+00
         22   -1    0    0    0    0  0.00000000000E+00  0.00000000000E+00  0.11213888179E+02  0.11213888179E+02  0.00000000000E+00 0. -1.
         22   -1    0    0    0    0 -0.00000000000E+00 -0.00000000000E+00 -0.57070787660E+00  0.57070787660E+00  0.00000000000E+00 0.  1.
          4    1    1    2  501    0 -0.24722264317E+00 -0.24948506593E+01  0.45336051976E+01  0.51806346074E+01  0.00000000000E+00 0.  1.
         -4    1    1    2    0  501  0.24722264317E+00  0.24948506593E+01  0.61095751043E+01  0.66039614477E+01  0.00000000000E+00 0. -1.
<mgrwt>
<rscale>  0 0.25070698E+01</rscale>
<asrwt>0</asrwt>
<pdfrwt beam="1">0</pdfrwt>
<pdfrwt beam="2">0</pdfrwt>
<totfact> 0.26121544E+12</totfact>
</mgrwt>
</event>
<event>
 4    2  0.2130683E+006  0.2023497E+01  0.7546771E-02  0.2965043E+00
         22   -1    0    0    0    0  0.00000000000E+00  0.00000000000E+00  0.39695107132E+02  0.39695107132E+02  0.00000000000E+00 0.  1.
         22   -1    0    0    0    0 -0.00000000000E+00 -0.00000000000E+00 -0.25606013344E+00  0.25606013344E+00  0.00000000000E+00 0. -1.
          4    1    1    2  501    0 -0.17237613210E+01  0.10598052917E+01  0.42830894047E+01  0.47370238754E+01  0.00000000000E+00 0. -1.
         -4    1    1    2    0  501  0.17237613210E+01 -0.10598052917E+01  0.35155957593E+02  0.35214143390E+02  0.00000000000E+00 0.  1.
<mgrwt>
<rscale>  0 0.20234971E+01</rscale>
<asrwt>0</asrwt>
<pdfrwt beam="1">0</pdfrwt>
<pdfrwt beam="2">0</pdfrwt>
<totfact> 0.13213052E+12</totfact>
</mgrwt>
</event>
<event>
 4    2  0.2130683E+006  0.5091591E+01  0.7546771E-02  0.2112227E+00
         22   -1    0    0    0    0  0.00000000000E+00  0.00000000000E+00  0.20141152677E+01  0.20141152677E+01  0.00000000000E+00 0.  1.
         22   -1    0    0    0    0 -0.00000000000E+00 -0.00000000000E+00 -0.15719607582E+02  0.15719607582E+02  0.00000000000E+00 0. -1.
          4    1    1    2  501    0 -0.49434904900E+01  0.12190999224E+01 -0.10627092236E+02  0.11783861516E+02  0.00000000000E+00 0. -1.
         -4    1    1    2    0  501  0.49434904900E+01 -0.12190999224E+01 -0.30784000787E+01  0.59498613337E+01  0.00000000000E+00 0.  1.
<mgrwt>
<rscale>  0 0.50915914E+01</rscale>
<asrwt>0</asrwt>
<pdfrwt beam="1">0</pdfrwt>
<pdfrwt beam="2">0</pdfrwt>
<totfact> 0.40832069E+11</totfact>
</mgrwt>
</event>
<event>
 4    2  0.2130683E+006  0.3537965E+01  0.7546771E-02  0.2375396E+00
         22   -1    0    0    0    0  0.00000000000E+00  0.00000000000E+00  0.35651618163E+01  0.35651618163E+01  0.00000000000E+00 0. -1.
         22   -1    0    0    0    0 -0.00000000000E+00 -0.00000000000E+00 -0.37718636857E+01  0.37718636857E+01  0.00000000000E+00 0.  1.
          4    1    1    2  501    0  0.33390687922E+01 -0.11695368968E+01 -0.10681546642E+01  0.36956936207E+01  0.00000000000E+00 0.  1.
         -4    1    1    2    0  501 -0.33390687922E+01  0.11695368968E+01  0.86145279489E+00  0.36413318813E+01  0.00000000000E+00 0. -1.
<mgrwt>
<rscale>  0 0.35379651E+01</rscale>
<asrwt>0</asrwt>
<pdfrwt beam="1">0</pdfrwt>
<pdfrwt beam="2">0</pdfrwt>
<totfact> 0.11659507E+12</totfact>
</mgrwt>
</event>
<event>
 4    2  0.2130683E+006  0.4154351E+01  0.7546771E-02  0.2248726E+00
         22   -1    0    0    0    0  0.00000000000E+00  0.00000000000E+00  0.18085082564E+01  0.18085082564E+01  0.00000000000E+00 0. -1.
         22   -1    0    0    0    0 -0.00000000000E+00 -0.00000000000E+00 -0.95529014087E+01  0.95529014087E+01  0.00000000000E+00 0.  1.
          4    1    1    2  501    0  0.41375978900E+01  0.37271786658E+00 -0.40548761382E+01  0.58052265592E+01  0.00000000000E+00 0. -1.
         -4    1    1    2    0  501 -0.41375978900E+01 -0.37271786658E+00 -0.36895170141E+01  0.55561831058E+01  0.00000000000E+00 0.  1.
<mgrwt>
<rscale>  0 0.41543513E+01</rscale>
<asrwt>0</asrwt>
<pdfrwt beam="1">0</pdfrwt>
<pdfrwt beam="2">0</pdfrwt>
<totfact> 0.84935465E+11</totfact>
</mgrwt>
</event>
<event>
 4    2  0.2130683E+006  0.7338859E+01  0.7546771E-02  0.1917015E+00
         22   -1    0    0    0    0  0.00000000000E+00  0.00000000000E+00  0.66449467382E+01  0.66449467382E+01  0.00000000000E+00 0. -1.
         22   -1    0    0    0    0 -0.00000000000E+00 -0.00000000000E+00 -0.15761229478E+02  0.15761229478E+02  0.00000000000E+00 0.  1.
          4    1    1    2  501    0 -0.73369718115E+01 -0.16641408943E+00 -0.12366208458E+02  0.14379915182E+02  0.00000000000E+00 0.  1.
         -4    1    1    2    0  501  0.73369718115E+01  0.16641408943E+00  0.32499257184E+01  0.80262610341E+01  0.00000000000E+00 0. -1.
<mgrwt>
<rscale>  0 0.73388588E+01</rscale>
<asrwt>0</asrwt>
<pdfrwt beam="1">0</pdfrwt>
<pdfrwt beam="2">0</pdfrwt>
<totfact> 0.10015004E+11</totfact>
</mgrwt>
</event>
<event>
 4    2  0.2130683E+006  0.3022954E+01  0.7546771E-02  0.2514976E+00
         22   -1    0    0    0    0  0.00000000000E+00  0.00000000000E+00  0.21216560420E+01  0.21216560420E+01  0.00000000000E+00 0. -1.
         22   -1    0    0    0    0 -0.00000000000E+00 -0.00000000000E+00 -0.43309341603E+01  0.43309341603E+01  0.00000000000E+00 0.  1.
          4    1    1    2  501    0 -0.22055260073E+01  0.20673430479E+01 -0.13438181113E+01  0.33081867182E+01  0.00000000000E+00 0.  1.
         -4    1    1    2    0  501  0.22055260073E+01 -0.20673430479E+01 -0.86546000707E+00  0.31444034840E+01  0.00000000000E+00 0. -1.
<mgrwt>
<rscale>  0 0.30229542E+01</rscale>
<asrwt>0</asrwt>
<pdfrwt beam="1">0</pdfrwt>
<pdfrwt beam="2">0</pdfrwt>
<totfact> 0.18147424E+12</totfact>
</mgrwt>
</event>
<event>
 4    2  0.2130683E+006  0.2054609E+01  0.7546771E-02  0.2944814E+00
         22   -1    0    0    0    0  0.00000000000E+00  0.00000000000E+00  0.22212593743E+01  0.22212593743E+01  0.00000000000E+00 0. -1.
         22   -1    0    0    0    0 -0.00000000000E+00 -0.00000000000E+00 -0.31086610888E+01  0.31086610888E+01  0.00000000000E+00 0.  1.
          4    1    1    2  501    0  0.15059142822E+01  0.13977261860E+01 -0.21050982161E+01  0.29415735272E+01  0.00000000000E+00 0.  1.
         -4    1    1    2    0  501 -0.15059142822E+01 -0.13977261860E+01  0.12176965016E+01  0.23883469360E+01  0.00000000000E+00 0. -1.
<mgrwt>
<rscale>  0 0.20546086E+01</rscale>
<asrwt>0</asrwt>
<pdfrwt beam="1">0</pdfrwt>
<pdfrwt beam="2">0</pdfrwt>
<totfact> 0.25395433E+12</totfact>
</mgrwt>
</event>
<event>
 4    2  0.2130683E+006  0.2327625E+01  0.7546771E-02  0.2789775E+00
         22   -1    0    0    0    0  0.00000000000E+00  0.00000000000E+00  0.17361718450E+02  0.17361718450E+02  0.00000000000E+00 0. -1.
         22   -1    0    0    0    0 -0.00000000000E+00 -0.00000000000E+00 -0.75663750214E+00  0.75663750214E+00  0.00000000000E+00 0.  1.
          4    1    1    2  501    0  0.23078261064E+01  0.30294480275E+00  0.13583709204E+01  0.26949969292E+01  0.00000000000E+00 0.  1.
         -4    1    1    2    0  501 -0.23078261064E+01 -0.30294480275E+00  0.15246710028E+02  0.15423359023E+02  0.00000000000E+00 0. -1.
<mgrwt>
<rscale>  0 0.23276247E+01</rscale>
<asrwt>0</asrwt>
<pdfrwt beam="1">0</pdfrwt>
<pdfrwt beam="2">0</pdfrwt>
<totfact> 0.11096185E+12</totfact>
</mgrwt>
</event>
<event>
 4    2  0.2130683E+006  0.2217111E+01  0.7546771E-02  0.2848119E+00
         22   -1    0    0    0    0  0.00000000000E+00  0.00000000000E+00  0.11662424328E+02  0.11662424328E+02  0.00000000000E+00 0.  1.
         22   -1    0    0    0    0 -0.00000000000E+00 -0.00000000000E+00 -0.50914488947E+00  0.50914488947E+00  0.00000000000E+00 0. -1.
          4    1    1    2  501    0 -0.61972702525E+00  0.21287370276E+01  0.81017861724E+01  0.83996739283E+01  0.00000000000E+00 0.  1.
         -4    1    1    2    0  501  0.61972702525E+00 -0.21287370276E+01  0.30514932658E+01  0.37718952888E+01  0.00000000000E+00 0. -1.
<mgrwt>
<rscale>  0 0.22171114E+01</rscale>
<asrwt>0</asrwt>
<pdfrwt beam="1">0</pdfrwt>
<pdfrwt beam="2">0</pdfrwt>
<totfact> 0.28333187E+12</totfact>
</mgrwt>
</event>
<event>
 4    2  0.2130683E+006  0.2291478E+01  0.7546771E-02  0.2808269E+00
         22   -1    0    0    0    0  0.00000000000E+00  0.00000000000E+00  0.10348618344E+02  0.10348618344E+02  0.00000000000E+00 0. -1.
         22   -1    0    0    0    0 -0.00000000000E+00 -0.00000000000E+00 -0.17856758877E+01  0.17856758877E+01  0.00000000000E+00 0.  1.
          4    1    1    2  501    0 -0.16780923811E+01 -0.15604089060E+01 -0.85181898754E+00  0.24446810796E+01  0.00000000000E+00 0.  1.
         -4    1    1    2    0  501  0.16780923811E+01  0.15604089060E+01  0.94147614434E+01  0.96896131517E+01  0.00000000000E+00 0. -1.
<mgrwt>
<rscale>  0 0.22914777E+01</rscale>
<asrwt>0</asrwt>
<pdfrwt beam="1">0</pdfrwt>
<pdfrwt beam="2">0</pdfrwt>
<totfact> 0.78229536E+11</totfact>
</mgrwt>
</event>
<event>
 4    2  0.2130683E+006  0.3852253E+01  0.7546771E-02  0.2306459E+00
         22   -1    0    0    0    0  0.00000000000E+00  0.00000000000E+00  0.82854623228E+01  0.82854623228E+01  0.00000000000E+00 0.  1.
         22   -1    0    0    0    0 -0.00000000000E+00 -0.00000000000E+00 -0.18130534519E+01  0.18130534519E+01  0.00000000000E+00 0. -1.
          4    1    1    2  501    0  0.36437845222E+01  0.12500763677E+01  0.26802310306E+01  0.46929196613E+01  0.00000000000E+00 0. -1.
         -4    1    1    2    0  501 -0.36437845222E+01 -0.12500763677E+01  0.37921778403E+01  0.54055961135E+01  0.00000000000E+00 0.  1.
<mgrwt>
<rscale>  0 0.38522534E+01</rscale>
<asrwt>0</asrwt>
<pdfrwt beam="1">0</pdfrwt>
<pdfrwt beam="2">0</pdfrwt>
<totfact> 0.10054783E+12</totfact>
</mgrwt>
</event>
<event>
 4    2  0.2130683E+006  0.2847624E+01  0.7546771E-02  0.2572642E+00
         22   -1    0    0    0    0  0.00000000000E+00  0.00000000000E+00  0.35030888353E+00  0.35030888353E+00  0.00000000000E+00 0.  1.
         22   -1    0    0    0    0 -0.00000000000E+00 -0.00000000000E+00 -0.37724278014E+02  0.37724278014E+02  0.00000000000E+00 0. -1.
          4    1    1    2  501    0 -0.13501678190E+01  0.25071912938E+01 -0.30520603430E+02  0.30653159626E+02  0.00000000000E+00 0. -1.
         -4    1    1    2    0  501  0.13501678190E+01 -0.25071912938E+01 -0.68533657007E+01  0.74214272718E+01  0.00000000000E+00 0.  1.
<mgrwt>
<rscale>  0 0.28476238E+01</rscale>
<asrwt>0</asrwt>
<pdfrwt beam="1">0</pdfrwt>
<pdfrwt beam="2">0</pdfrwt>
<totfact> 0.99332029E+11</totfact>
</mgrwt>
</event>
<event>
 4    2  0.2130683E+006  0.2426325E+01  0.7546771E-02  0.2741930E+00
         22   -1    0    0    0    0  0.00000000000E+00  0.00000000000E+00  0.12375220640E+02  0.12375220640E+02  0.00000000000E+00 0.  1.
         22   -1    0    0    0    0 -0.00000000000E+00 -0.00000000000E+00 -0.56448900551E+00  0.56448900551E+00  0.00000000000E+00 0. -1.
          4    1    1    2  501    0 -0.45308401796E+00 -0.23836459093E+01  0.33396138621E+01  0.41279624146E+01  0.00000000000E+00 0. -1.
         -4    1    1    2    0  501  0.45308401796E+00  0.23836459093E+01  0.84711177724E+01  0.88117472309E+01  0.00000000000E+00 0.  1.
<mgrwt>
<rscale>  0 0.24263250E+01</rscale>
<asrwt>0</asrwt>
<pdfrwt beam="1">0</pdfrwt>
<pdfrwt beam="2">0</pdfrwt>
<totfact> 0.23454893E+12</totfact>
</mgrwt>
</event>
<event>
 4    2  0.2130683E+006  0.2743622E+01  0.7546771E-02  0.2609984E+00
         22   -1    0    0    0    0  0.00000000000E+00  0.00000000000E+00  0.90099098125E+01  0.90099098125E+01  0.00000000000E+00 0.  1.
         22   -1    0    0    0    0 -0.00000000000E+00 -0.00000000000E+00 -0.10246686234E+01  0.10246686234E+01  0.00000000000E+00 0. -1.
          4    1    1    2  501    0 -0.12793009281E+01 -0.24271070242E+01  0.18366503133E+01  0.33016274388E+01  0.00000000000E+00 0. -1.
         -4    1    1    2    0  501  0.12793009281E+01  0.24271070242E+01  0.61485908759E+01  0.67329509972E+01  0.00000000000E+00 0.  1.
<mgrwt>
<rscale>  0 0.27436216E+01</rscale>
<asrwt>0</asrwt>
<pdfrwt beam="1">0</pdfrwt>
<pdfrwt beam="2">0</pdfrwt>
<totfact> 0.17505025E+12</totfact>
</mgrwt>
</event>
<event>
 4    2  0.2130683E+006  0.3219129E+01  0.7546771E-02  0.2457162E+00
         22   -1    0    0    0    0  0.00000000000E+00  0.00000000000E+00  0.18464943448E+02  0.18464943448E+02  0.00000000000E+00 0.  1.
         22   -1    0    0    0    0 -0.00000000000E+00 -0.00000000000E+00 -0.28698939131E+01  0.28698939131E+01  0.00000000000E+00 0. -1.
          4    1    1    2  501    0 -0.22072409804E+01 -0.23432624937E+01 -0.17701905658E+01  0.36737401240E+01  0.00000000000E+00 0. -1.
         -4    1    1    2    0  501  0.22072409804E+01  0.23432624937E+01  0.17365240101E+02  0.17661097237E+02  0.00000000000E+00 0.  1.
<mgrwt>
<rscale>  0 0.32191291E+01</rscale>
<asrwt>0</asrwt>
<pdfrwt beam="1">0</pdfrwt>
<pdfrwt beam="2">0</pdfrwt>
<totfact> 0.22169621E+11</totfact>
</mgrwt>
</event>
<event>
 4    2  0.2130683E+006  0.2139084E+01  0.7546771E-02  0.2892777E+00
         22   -1    0    0    0    0  0.00000000000E+00  0.00000000000E+00  0.28391544056E+01  0.28391544056E+01  0.00000000000E+00 0.  1.
         22   -1    0    0    0    0 -0.00000000000E+00 -0.00000000000E+00 -0.33541729748E+01  0.33541729748E+01  0.00000000000E+00 0. -1.
          4    1    1    2  501    0  0.20628086874E+01  0.56612925898E+00 -0.24894999706E+01  0.32822693556E+01  0.00000000000E+00 0. -1.
         -4    1    1    2    0  501 -0.20628086874E+01 -0.56612925898E+00  0.19744814015E+01  0.29110580248E+01  0.00000000000E+00 0.  1.
<mgrwt>
<rscale>  0 0.21390844E+01</rscale>
<asrwt>0</asrwt>
<pdfrwt beam="1">0</pdfrwt>
<pdfrwt beam="2">0</pdfrwt>
<totfact> 0.17463547E+12</totfact>
</mgrwt>
</event>
<event>
 4    2  0.2130683E+006  0.3017651E+01  0.7546771E-02  0.2516631E+00
         22   -1    0    0    0    0  0.00000000000E+00  0.00000000000E+00  0.23377855017E+00  0.23377855017E+00  0.00000000000E+00 0.  1.
         22   -1    0    0    0    0 -0.00000000000E+00 -0.00000000000E+00 -0.39357477413E+02  0.39357477413E+02  0.00000000000E+00 0. -1.
          4    1    1    2  501    0 -0.28143717454E+01 -0.10888203380E+01 -0.17553381491E+02  0.17810879254E+02  0.00000000000E+00 0. -1.
         -4    1    1    2    0  501  0.28143717454E+01  0.10888203380E+01 -0.21570317372E+02  0.21780376709E+02  0.00000000000E+00 0.  1.
<mgrwt>
<rscale>  0 0.30176511E+01</rscale>
<asrwt>0</asrwt>
<pdfrwt beam="1">0</pdfrwt>
<pdfrwt beam="2">0</pdfrwt>
<totfact> 0.14794060E+12</totfact>
</mgrwt>
</event>
<event>
 4    2  0.2130683E+006  0.2154219E+01  0.7546771E-02  0.2883872E+00
         22   -1    0    0    0    0  0.00000000000E+00  0.00000000000E+00  0.10084111620E+00  0.10084111620E+00  0.00000000000E+00 0. -1.
         22   -1    0    0    0    0 -0.00000000000E+00 -0.00000000000E+00 -0.46021063782E+02  0.46021063782E+02  0.00000000000E+00 0.  1.
          4    1    1    2  501    0 -0.17697752063E+01  0.12282328050E+01 -0.23093530095E+02  0.23193787796E+02  0.00000000000E+00 0. -1.
         -4    1    1    2    0  501  0.17697752063E+01 -0.12282328050E+01 -0.22826692571E+02  0.22928117101E+02  0.00000000000E+00 0.  1.
<mgrwt>
<rscale>  0 0.21542191E+01</rscale>
<asrwt>0</asrwt>
<pdfrwt beam="1">0</pdfrwt>
<pdfrwt beam="2">0</pdfrwt>
<totfact> 0.30736170E+12</totfact>
</mgrwt>
</event>
<event>
 4    2  0.2130683E+006  0.2036734E+01  0.7546771E-02  0.2956362E+00
         22   -1    0    0    0    0  0.00000000000E+00  0.00000000000E+00  0.18833879908E+02  0.18833879908E+02  0.00000000000E+00 0.  1.
         22   -1    0    0    0    0 -0.00000000000E+00 -0.00000000000E+00 -0.28727001013E+00  0.28727001013E+00  0.00000000000E+00 0. -1.
          4    1    1    2  501    0  0.20012984001E+01  0.37827466895E+00  0.46556698334E+01  0.50816875749E+01  0.00000000000E+00 0. -1.
         -4    1    1    2    0  501 -0.20012984001E+01 -0.37827466895E+00  0.13890940064E+02  0.14039462343E+02  0.00000000000E+00 0.  1.
<mgrwt>
<rscale>  0 0.20367344E+01</rscale>
<asrwt>0</asrwt>
<pdfrwt beam="1">0</pdfrwt>
<pdfrwt beam="2">0</pdfrwt>
<totfact> 0.29909948E+12</totfact>
</mgrwt>
</event>
<event>
 4    2  0.2130683E+006  0.2058959E+01  0.7546771E-02  0.2942032E+00
         22   -1    0    0    0    0  0.00000000000E+00  0.00000000000E+00  0.29057876769E+02  0.29057876769E+02  0.00000000000E+00 0. -1.
         22   -1    0    0    0    0 -0.00000000000E+00 -0.00000000000E+00 -0.15583202680E+00  0.15583202680E+00  0.00000000000E+00 0.  1.
          4    1    1    2  501    0 -0.16409995378E+01 -0.12435570213E+01  0.10761919448E+02  0.10957108366E+02  0.00000000000E+00 0. -1.
         -4    1    1    2    0  501  0.16409995378E+01  0.12435570213E+01  0.18140125294E+02  0.18256600429E+02  0.00000000000E+00 0.  1.
<mgrwt>
<rscale>  0 0.20589593E+01</rscale>
<asrwt>0</asrwt>
<pdfrwt beam="1">0</pdfrwt>
<pdfrwt beam="2">0</pdfrwt>
<totfact> 0.34324491E+12</totfact>
</mgrwt>
</event>
<event>
 4    2  0.2130683E+006  0.3019483E+01  0.7546771E-02  0.2516059E+00
         22   -1    0    0    0    0  0.00000000000E+00  0.00000000000E+00  0.83169638817E+00  0.83169638817E+00  0.00000000000E+00 0. -1.
         22   -1    0    0    0    0 -0.00000000000E+00 -0.00000000000E+00 -0.11887018051E+02  0.11887018051E+02  0.00000000000E+00 0.  1.
          4    1    1    2  501    0  0.29580583525E+01 -0.60594568181E+00 -0.73013958833E+01  0.79011177204E+01  0.00000000000E+00 0.  1.
         -4    1    1    2    0  501 -0.29580583525E+01  0.60594568181E+00 -0.37539257791E+01  0.48175967184E+01  0.00000000000E+00 0. -1.
<mgrwt>
<rscale>  0 0.30194833E+01</rscale>
<asrwt>0</asrwt>
<pdfrwt beam="1">0</pdfrwt>
<pdfrwt beam="2">0</pdfrwt>
<totfact> 0.15870063E+12</totfact>
</mgrwt>
</event>
<event>
 4    2  0.2130683E+006  0.2323417E+01  0.7546771E-02  0.2791899E+00
         22   -1    0    0    0    0  0.00000000000E+00  0.00000000000E+00  0.31562519243E+00  0.31562519243E+00  0.00000000000E+00 0.  1.
         22   -1    0    0    0    0 -0.00000000000E+00 -0.00000000000E+00 -0.17426118259E+02  0.17426118259E+02  0.00000000000E+00 0. -1.
          4    1    1    2  501    0  0.74422519027E-01  0.23222249017E+01 -0.73480701589E+01  0.77066466291E+01  0.00000000000E+00 0. -1.
         -4    1    1    2    0  501 -0.74422519027E-01 -0.23222249017E+01 -0.97624229078E+01  0.10035096822E+02  0.00000000000E+00 0.  1.
<mgrwt>
<rscale>  0 0.23234171E+01</rscale>
<asrwt>0</asrwt>
<pdfrwt beam="1">0</pdfrwt>
<pdfrwt beam="2">0</pdfrwt>
<totfact> 0.29640129E+12</totfact>
</mgrwt>
</event>
<event>
 4    2  0.2130683E+006  0.5821929E+01  0.7546771E-02  0.2036035E+00
         22   -1    0    0    0    0  0.00000000000E+00  0.00000000000E+00  0.11198617008E+02  0.11198617008E+02  0.00000000000E+00 0. -1.
         22   -1    0    0    0    0 -0.00000000000E+00 -0.00000000000E+00 -0.30724478664E+01  0.30724478664E+01  0.00000000000E+00 0.  1.
          4    1    1    2  501    0  0.52189908652E+01 -0.25801150945E+01  0.31923871976E+01  0.66397436375E+01  0.00000000000E+00 0. -1.
         -4    1    1    2    0  501 -0.52189908652E+01  0.25801150945E+01  0.49337819441E+01  0.76313212371E+01  0.00000000000E+00 0.  1.
<mgrwt>
<rscale>  0 0.58219292E+01</rscale>
<asrwt>0</asrwt>
<pdfrwt beam="1">0</pdfrwt>
<pdfrwt beam="2">0</pdfrwt>
<totfact> 0.37844932E+11</totfact>
</mgrwt>
</event>
<event>
 4    2  0.2130683E+006  0.2558977E+01  0.7546771E-02  0.2683086E+00
         22   -1    0    0    0    0  0.00000000000E+00  0.00000000000E+00  0.51291250102E+01  0.51291250102E+01  0.00000000000E+00 0.  1.
         22   -1    0    0    0    0 -0.00000000000E+00 -0.00000000000E+00 -0.21173011165E+01  0.21173011165E+01  0.00000000000E+00 0. -1.
          4    1    1    2  501    0 -0.19174469179E+01 -0.16946274944E+01 -0.77704110836E+00  0.26743518676E+01  0.00000000000E+00 0. -1.
         -4    1    1    2    0  501  0.19174469179E+01  0.16946274944E+01  0.37888650020E+01  0.45720742591E+01  0.00000000000E+00 0.  1.
<mgrwt>
<rscale>  0 0.25589773E+01</rscale>
<asrwt>0</asrwt>
<pdfrwt beam="1">0</pdfrwt>
<pdfrwt beam="2">0</pdfrwt>
<totfact> 0.14893863E+12</totfact>
</mgrwt>
</event>
<event>
 4    2  0.2130683E+006  0.2234413E+01  0.7546771E-02  0.2838622E+00
         22   -1    0    0    0    0  0.00000000000E+00  0.00000000000E+00  0.11394844674E+02  0.11394844674E+02  0.00000000000E+00 0. -1.
         22   -1    0    0    0    0 -0.00000000000E+00 -0.00000000000E+00 -0.12625212358E+01  0.12625212358E+01  0.00000000000E+00 0.  1.
          4    1    1    2  501    0  0.17416745000E+01  0.13997044866E+01 -0.47788890433E-01  0.22349242698E+01  0.00000000000E+00 0.  1.
         -4    1    1    2    0  501 -0.17416745000E+01 -0.13997044866E+01  0.10180112329E+02  0.10422441640E+02  0.00000000000E+00 0. -1.
<mgrwt>
<rscale>  0 0.22344133E+01</rscale>
<asrwt>0</asrwt>
<pdfrwt beam="1">0</pdfrwt>
<pdfrwt beam="2">0</pdfrwt>
<totfact> 0.10370861E+12</totfact>
</mgrwt>
</event>
<event>
 4    2  0.2130683E+006  0.3926771E+01  0.7546771E-02  0.2291515E+00
         22   -1    0    0    0    0  0.00000000000E+00  0.00000000000E+00  0.18253008843E+01  0.18253008843E+01  0.00000000000E+00 0. -1.
         22   -1    0    0    0    0 -0.00000000000E+00 -0.00000000000E+00 -0.86092708594E+01  0.86092708594E+01  0.00000000000E+00 0.  1.
          4    1    1    2  501    0 -0.13885020275E+01  0.36730900097E+01 -0.26771732279E+01  0.47525555854E+01  0.00000000000E+00 0. -1.
         -4    1    1    2    0  501  0.13885020275E+01 -0.36730900097E+01 -0.41067967473E+01  0.56820161583E+01  0.00000000000E+00 0.  1.
<mgrwt>
<rscale>  0 0.39267707E+01</rscale>
<asrwt>0</asrwt>
<pdfrwt beam="1">0</pdfrwt>
<pdfrwt beam="2">0</pdfrwt>
<totfact> 0.95269774E+11</totfact>
</mgrwt>
</event>
<event>
 4    2  0.2130683E+006  0.2725879E+01  0.7546771E-02  0.2616613E+00
         22   -1    0    0    0    0  0.00000000000E+00  0.00000000000E+00  0.75687261929E+01  0.75687261929E+01  0.00000000000E+00 0.  1.
         22   -1    0    0    0    0 -0.00000000000E+00 -0.00000000000E+00 -0.13048529072E+01  0.13048529072E+01  0.00000000000E+00 0. -1.
          4    1    1    2  501    0 -0.96959815323E+00 -0.25476053911E+01  0.92406030980E+00  0.28782462132E+01  0.00000000000E+00 0. -1.
         -4    1    1    2    0  501  0.96959815323E+00  0.25476053911E+01  0.53398129759E+01  0.59953328869E+01  0.00000000000E+00 0.  1.
<mgrwt>
<rscale>  0 0.27258785E+01</rscale>
<asrwt>0</asrwt>
<pdfrwt beam="1">0</pdfrwt>
<pdfrwt beam="2">0</pdfrwt>
<totfact> 0.16368572E+12</totfact>
</mgrwt>
</event>
<event>
 4    2  0.2130683E+006  0.3515412E+01  0.7546771E-02  0.2380752E+00
         22   -1    0    0    0    0  0.00000000000E+00  0.00000000000E+00  0.20915256273E+02  0.20915256273E+02  0.00000000000E+00 0. -1.
         22   -1    0    0    0    0 -0.00000000000E+00 -0.00000000000E+00 -0.79091524730E+00  0.79091524730E+00  0.00000000000E+00 0.  1.
          4    1    1    2  501    0  0.21074839610E+01 -0.28136513559E+01  0.15520456234E+02  0.15913600608E+02  0.00000000000E+00 0. -1.
         -4    1    1    2    0  501 -0.21074839610E+01  0.28136513559E+01  0.46038847914E+01  0.57925709121E+01  0.00000000000E+00 0.  1.
<mgrwt>
<rscale>  0 0.35154122E+01</rscale>
<asrwt>0</asrwt>
<pdfrwt beam="1">0</pdfrwt>
<pdfrwt beam="2">0</pdfrwt>
<totfact> 0.83696244E+11</totfact>
</mgrwt>
</event>
<event>
 4    2  0.2130683E+006  0.2254187E+01  0.7546771E-02  0.2827938E+00
         22   -1    0    0    0    0  0.00000000000E+00  0.00000000000E+00  0.49434917742E-01  0.49434917742E-01  0.00000000000E+00 0. -1.
         22   -1    0    0    0    0 -0.00000000000E+00 -0.00000000000E+00 -0.10646364447E+03  0.10646364447E+03  0.00000000000E+00 0.  1.
          4    1    1    2  501    0  0.21154640149E+01  0.77857003992E+00 -0.43312745893E+02  0.43371365163E+02  0.00000000000E+00 0. -1.
         -4    1    1    2    0  501 -0.21154640149E+01 -0.77857003992E+00 -0.63101463655E+02  0.63141714221E+02  0.00000000000E+00 0.  1.
<mgrwt>
<rscale>  0 0.22541871E+01</rscale>
<asrwt>0</asrwt>
<pdfrwt beam="1">0</pdfrwt>
<pdfrwt beam="2">0</pdfrwt>
<totfact> 0.21581115E+12</totfact>
</mgrwt>
</event>
<event>
 4    2  0.2130683E+006  0.2254466E+01  0.7546771E-02  0.2827788E+00
         22   -1    0    0    0    0  0.00000000000E+00  0.00000000000E+00  0.25870860451E+00  0.25870860451E+00  0.00000000000E+00 0.  1.
         22   -1    0    0    0    0 -0.00000000000E+00 -0.00000000000E+00 -0.22461939251E+02  0.22461939251E+02  0.00000000000E+00 0. -1.
          4    1    1    2  501    0 -0.20003866080E+01  0.10397454966E+01 -0.15123877498E+02  0.15290987145E+02  0.00000000000E+00 0.  1.
         -4    1    1    2    0  501  0.20003866080E+01 -0.10397454966E+01 -0.70793531481E+01  0.74296607106E+01  0.00000000000E+00 0. -1.
<mgrwt>
<rscale>  0 0.22544661E+01</rscale>
<asrwt>0</asrwt>
<pdfrwt beam="1">0</pdfrwt>
<pdfrwt beam="2">0</pdfrwt>
<totfact> 0.26991873E+12</totfact>
</mgrwt>
</event>
<event>
 4    2  0.2130683E+006  0.2572871E+01  0.7546771E-02  0.2677250E+00
         22   -1    0    0    0    0  0.00000000000E+00  0.00000000000E+00  0.79987143524E+01  0.79987143524E+01  0.00000000000E+00 0. -1.
         22   -1    0    0    0    0 -0.00000000000E+00 -0.00000000000E+00 -0.17994861846E+01  0.17994861846E+01  0.00000000000E+00 0.  1.
          4    1    1    2  501    0  0.25567977137E+01 -0.28714197688E+00 -0.50079422675E+00  0.26211562184E+01  0.00000000000E+00 0.  1.
         -4    1    1    2    0  501 -0.25567977137E+01  0.28714197688E+00  0.67000223946E+01  0.71770443186E+01  0.00000000000E+00 0. -1.
<mgrwt>
<rscale>  0 0.25728710E+01</rscale>
<asrwt>0</asrwt>
<pdfrwt beam="1">0</pdfrwt>
<pdfrwt beam="2">0</pdfrwt>
<totfact> 0.10580799E+12</totfact>
</mgrwt>
</event>
<event>
 4    2  0.2130683E+006  0.2037409E+01  0.7546771E-02  0.2955923E+00
         22   -1    0    0    0    0  0.00000000000E+00  0.00000000000E+00  0.90125177670E+01  0.90125177670E+01  0.00000000000E+00 0.  1.
         22   -1    0    0    0    0 -0.00000000000E+00 -0.00000000000E+00 -0.16288809101E+01  0.16288809101E+01  0.00000000000E+00 0. -1.
          4    1    1    2  501    0 -0.15558704265E+01 -0.13154094313E+01 -0.81427707555E+00  0.21941016184E+01  0.00000000000E+00 0. -1.
         -4    1    1    2    0  501  0.15558704265E+01  0.13154094313E+01  0.81979139325E+01  0.84472970588E+01  0.00000000000E+00 0.  1.
<mgrwt>
<rscale>  0 0.20374088E+01</rscale>
<asrwt>0</asrwt>
<pdfrwt beam="1">0</pdfrwt>
<pdfrwt beam="2">0</pdfrwt>
<totfact> 0.10280007E+12</totfact>
</mgrwt>
</event>
<event>
 4    2  0.2130683E+006  0.2038732E+01  0.7546771E-02  0.2955061E+00
         22   -1    0    0    0    0  0.00000000000E+00  0.00000000000E+00  0.23337941508E+01  0.23337941508E+01  0.00000000000E+00 0. -1.
         22   -1    0    0    0    0 -0.00000000000E+00 -0.00000000000E+00 -0.26399832294E+01  0.26399832294E+01  0.00000000000E+00 0.  1.
          4    1    1    2  501    0  0.20387297154E+01 -0.33272954878E-02 -0.15716761625E+01  0.25742175283E+01  0.00000000000E+00 0.  1.
         -4    1    1    2    0  501 -0.20387297154E+01  0.33272954878E-02  0.12654870838E+01  0.23995598519E+01  0.00000000000E+00 0. -1.
<mgrwt>
<rscale>  0 0.20387324E+01</rscale>
<asrwt>0</asrwt>
<pdfrwt beam="1">0</pdfrwt>
<pdfrwt beam="2">0</pdfrwt>
<totfact> 0.29017395E+12</totfact>
</mgrwt>
</event>
<event>
 4    2  0.2130683E+006  0.2147962E+01  0.7546771E-02  0.2887539E+00
         22   -1    0    0    0    0  0.00000000000E+00  0.00000000000E+00  0.59638705400E+01  0.59638705400E+01  0.00000000000E+00 0. -1.
         22   -1    0    0    0    0 -0.00000000000E+00 -0.00000000000E+00 -0.10436954989E+01  0.10436954989E+01  0.00000000000E+00 0.  1.
          4    1    1    2  501    0  0.69081498915E+00  0.20338420018E+01  0.67772083468E+00  0.22523419294E+01  0.00000000000E+00 0. -1.
         -4    1    1    2    0  501 -0.69081498915E+00 -0.20338420018E+01  0.42424542064E+01  0.47552241095E+01  0.00000000000E+00 0.  1.
<mgrwt>
<rscale>  0 0.21479615E+01</rscale>
<asrwt>0</asrwt>
<pdfrwt beam="1">0</pdfrwt>
<pdfrwt beam="2">0</pdfrwt>
<totfact> 0.28098626E+12</totfact>
</mgrwt>
</event>
<event>
 4    2  0.2130683E+006  0.2268639E+01  0.7546771E-02  0.2820242E+00
         22   -1    0    0    0    0  0.00000000000E+00  0.00000000000E+00  0.28060756014E+02  0.28060756014E+02  0.00000000000E+00 0. -1.
         22   -1    0    0    0    0 -0.00000000000E+00 -0.00000000000E+00 -0.20902908441E+00  0.20902908441E+00  0.00000000000E+00 0.  1.
          4    1    1    2  501    0 -0.17510645601E+01  0.14423916957E+01  0.89777293705E+01  0.92599322648E+01  0.00000000000E+00 0.  1.
         -4    1    1    2    0  501  0.17510645601E+01 -0.14423916957E+01  0.18873997559E+02  0.19009852834E+02  0.00000000000E+00 0. -1.
<mgrwt>
<rscale>  0 0.22686386E+01</rscale>
<asrwt>0</asrwt>
<pdfrwt beam="1">0</pdfrwt>
<pdfrwt beam="2">0</pdfrwt>
<totfact> 0.25869088E+12</totfact>
</mgrwt>
</event>
<event>
 4    2  0.2130683E+006  0.3272416E+01  0.7546771E-02  0.2442524E+00
         22   -1    0    0    0    0  0.00000000000E+00  0.00000000000E+00  0.67935074566E+00  0.67935074566E+00  0.00000000000E+00 0.  1.
         22   -1    0    0    0    0 -0.00000000000E+00 -0.00000000000E+00 -0.25803130193E+02  0.25803130193E+02  0.00000000000E+00 0. -1.
          4    1    1    2  501    0  0.11829853371E+01 -0.30511065089E+01 -0.20821489095E+02  0.21077075541E+02  0.00000000000E+00 0. -1.
         -4    1    1    2    0  501 -0.11829853371E+01  0.30511065089E+01 -0.43022903530E+01  0.54054053981E+01  0.00000000000E+00 0.  1.
<mgrwt>
<rscale>  0 0.32724158E+01</rscale>
<asrwt>0</asrwt>
<pdfrwt beam="1">0</pdfrwt>
<pdfrwt beam="2">0</pdfrwt>
<totfact> 0.76403699E+11</totfact>
</mgrwt>
</event>
<event>
 4    2  0.2130683E+006  0.2593704E+01  0.7546771E-02  0.2668607E+00
         22   -1    0    0    0    0  0.00000000000E+00  0.00000000000E+00  0.35671459789E+01  0.35671459789E+01  0.00000000000E+00 0. -1.
         22   -1    0    0    0    0 -0.00000000000E+00 -0.00000000000E+00 -0.18886836903E+01  0.18886836903E+01  0.00000000000E+00 0.  1.
          4    1    1    2  501    0 -0.71659612020E+00  0.24927479942E+01  0.73461929378E+00  0.26957314534E+01  0.00000000000E+00 0. -1.
         -4    1    1    2    0  501  0.71659612020E+00 -0.24927479942E+01  0.94384299480E+00  0.27600982158E+01  0.00000000000E+00 0.  1.
<mgrwt>
<rscale>  0 0.25937044E+01</rscale>
<asrwt>0</asrwt>
<pdfrwt beam="1">0</pdfrwt>
<pdfrwt beam="2">0</pdfrwt>
<totfact> 0.26084839E+12</totfact>
</mgrwt>
</event>
<event>
 4    2  0.2130683E+006  0.2655693E+01  0.7546771E-02  0.2643630E+00
         22   -1    0    0    0    0  0.00000000000E+00  0.00000000000E+00  0.26116907650E+02  0.26116907650E+02  0.00000000000E+00 0.  1.
         22   -1    0    0    0    0 -0.00000000000E+00 -0.00000000000E+00 -0.43236883765E+00  0.43236883765E+00  0.00000000000E+00 0. -1.
          4    1    1    2  501    0 -0.21652235704E+01 -0.15376972101E+01  0.47085643435E+01  0.54058564536E+01  0.00000000000E+00 0. -1.
         -4    1    1    2    0  501  0.21652235704E+01  0.15376972101E+01  0.20975974469E+02  0.21143420034E+02  0.00000000000E+00 0.  1.
<mgrwt>
<rscale>  0 0.26556931E+01</rscale>
<asrwt>0</asrwt>
<pdfrwt beam="1">0</pdfrwt>
<pdfrwt beam="2">0</pdfrwt>
<totfact> 0.12541464E+12</totfact>
</mgrwt>
</event>
<event>
 4    2  0.2130683E+006  0.4122258E+01  0.7546771E-02  0.2254516E+00
         22   -1    0    0    0    0  0.00000000000E+00  0.00000000000E+00  0.10356484323E+02  0.10356484323E+02  0.00000000000E+00 0. -1.
         22   -1    0    0    0    0 -0.00000000000E+00 -0.00000000000E+00 -0.39594122777E+01  0.39594122777E+01  0.00000000000E+00 0.  1.
          4    1    1    2  501    0 -0.13047968826E+01  0.39103086011E+01 -0.22790153238E+01  0.47102992587E+01  0.00000000000E+00 0.  1.
         -4    1    1    2    0  501  0.13047968826E+01 -0.39103086011E+01  0.86760873696E+01  0.96055973424E+01  0.00000000000E+00 0. -1.
<mgrwt>
<rscale>  0 0.41222577E+01</rscale>
<asrwt>0</asrwt>
<pdfrwt beam="1">0</pdfrwt>
<pdfrwt beam="2">0</pdfrwt>
<totfact> 0.30908450E+11</totfact>
</mgrwt>
</event>
<event>
 4    2  0.2130683E+006  0.5512643E+01  0.7546771E-02  0.2066365E+00
         22   -1    0    0    0    0  0.00000000000E+00  0.00000000000E+00  0.59642456796E+01  0.59642456796E+01  0.00000000000E+00 0.  1.
         22   -1    0    0    0    0 -0.00000000000E+00 -0.00000000000E+00 -0.57847286218E+01  0.57847286218E+01  0.00000000000E+00 0. -1.
          4    1    1    2  501    0  0.41634048073E+01 -0.36132111176E+01 -0.19383609947E+01  0.58434987393E+01  0.00000000000E+00 0.  1.
         -4    1    1    2    0  501 -0.41634048073E+01  0.36132111176E+01  0.21178780526E+01  0.59054755622E+01  0.00000000000E+00 0. -1.
<mgrwt>
<rscale>  0 0.55126431E+01</rscale>
<asrwt>0</asrwt>
<pdfrwt beam="1">0</pdfrwt>
<pdfrwt beam="2">0</pdfrwt>
<totfact> 0.38297001E+11</totfact>
</mgrwt>
</event>
<event>
 4    2  0.2130683E+006  0.2227626E+01  0.7546771E-02  0.2842331E+00
         22   -1    0    0    0    0  0.00000000000E+00  0.00000000000E+00  0.21641571615E+02  0.21641571615E+02  0.00000000000E+00 0.  1.
         22   -1    0    0    0    0 -0.00000000000E+00 -0.00000000000E+00 -0.22937622732E+00  0.22937622732E+00  0.00000000000E+00 0. -1.
          4    1    1    2  501    0 -0.68374368200E+00 -0.21200968600E+01  0.10501013283E+02  0.10734691243E+02  0.00000000000E+00 0. -1.
         -4    1    1    2    0  501  0.68374368200E+00  0.21200968600E+01  0.10911182105E+02  0.11136256599E+02  0.00000000000E+00 0.  1.
<mgrwt>
<rscale>  0 0.22276257E+01</rscale>
<asrwt>0</asrwt>
<pdfrwt beam="1">0</pdfrwt>
<pdfrwt beam="2">0</pdfrwt>
<totfact> 0.32353509E+12</totfact>
</mgrwt>
</event>
<event>
 4    2  0.2130683E+006  0.2456769E+01  0.7546771E-02  0.2727901E+00
         22   -1    0    0    0    0  0.00000000000E+00  0.00000000000E+00  0.50987720990E+00  0.50987720990E+00  0.00000000000E+00 0.  1.
         22   -1    0    0    0    0 -0.00000000000E+00 -0.00000000000E+00 -0.11865044053E+02  0.11865044053E+02  0.00000000000E+00 0. -1.
          4    1    1    2  501    0  0.79830418287E+00  0.23234513252E+01 -0.59752347804E+01  0.64605840534E+01  0.00000000000E+00 0. -1.
         -4    1    1    2    0  501 -0.79830418287E+00 -0.23234513252E+01 -0.53799320623E+01  0.59143372092E+01  0.00000000000E+00 0.  1.
<mgrwt>
<rscale>  0 0.24567693E+01</rscale>
<asrwt>0</asrwt>
<pdfrwt beam="1">0</pdfrwt>
<pdfrwt beam="2">0</pdfrwt>
<totfact> 0.27700696E+12</totfact>
</mgrwt>
</event>
<event>
 4    2  0.2130683E+006  0.2209337E+01  0.7546771E-02  0.2852433E+00
         22   -1    0    0    0    0  0.00000000000E+00  0.00000000000E+00  0.16935827527E+01  0.16935827527E+01  0.00000000000E+00 0.  1.
         22   -1    0    0    0    0 -0.00000000000E+00 -0.00000000000E+00 -0.40244532819E+01  0.40244532819E+01  0.00000000000E+00 0. -1.
          4    1    1    2  501    0 -0.12677898122E+01 -0.18093868957E+01 -0.26886206561E+01  0.34799214041E+01  0.00000000000E+00 0. -1.
         -4    1    1    2    0  501  0.12677898122E+01  0.18093868957E+01  0.35775012700E+00  0.22381146305E+01  0.00000000000E+00 0.  1.
<mgrwt>
<rscale>  0 0.22093374E+01</rscale>
<asrwt>0</asrwt>
<pdfrwt beam="1">0</pdfrwt>
<pdfrwt beam="2">0</pdfrwt>
<totfact> 0.25673908E+12</totfact>
</mgrwt>
</event>
<event>
 4    2  0.2130683E+006  0.2014123E+01  0.7546771E-02  0.2971258E+00
         22   -1    0    0    0    0  0.00000000000E+00  0.00000000000E+00  0.26343204790E+02  0.26343204790E+02  0.00000000000E+00 0. -1.
         22   -1    0    0    0    0 -0.00000000000E+00 -0.00000000000E+00 -0.15584767862E+00  0.15584767862E+00  0.00000000000E+00 0.  1.
          4    1    1    2  501    0 -0.19673617104E+01 -0.43148582556E+00  0.11648630309E+02  0.11821475381E+02  0.00000000000E+00 0.  1.
         -4    1    1    2    0  501  0.19673617104E+01  0.43148582556E+00  0.14538726802E+02  0.14677577087E+02  0.00000000000E+00 0. -1.
<mgrwt>
<rscale>  0 0.20141232E+01</rscale>
<asrwt>0</asrwt>
<pdfrwt beam="1">0</pdfrwt>
<pdfrwt beam="2">0</pdfrwt>
<totfact> 0.38866868E+12</totfact>
</mgrwt>
</event>
<event>
 4    2  0.2130683E+006  0.3822213E+01  0.7546771E-02  0.2312624E+00
         22   -1    0    0    0    0  0.00000000000E+00  0.00000000000E+00  0.99863147136E+00  0.99863147136E+00  0.00000000000E+00 0.  1.
         22   -1    0    0    0    0 -0.00000000000E+00 -0.00000000000E+00 -0.37638784764E+02  0.37638784764E+02  0.00000000000E+00 0. -1.
          4    1    1    2  501    0 -0.14835083038E+00  0.38193325586E+01 -0.33424823456E+02  0.33642653466E+02  0.00000000000E+00 0. -1.
         -4    1    1    2    0  501  0.14835083038E+00 -0.38193325586E+01 -0.32153298359E+01  0.49947627687E+01  0.00000000000E+00 0.  1.
<mgrwt>
<rscale>  0 0.38222126E+01</rscale>
<asrwt>0</asrwt>
<pdfrwt beam="1">0</pdfrwt>
<pdfrwt beam="2">0</pdfrwt>
<totfact> 0.30423918E+11</totfact>
</mgrwt>
</event>
<event>
 4    2  0.2130683E+006  0.3518824E+01  0.7546771E-02  0.2379938E+00
         22   -1    0    0    0    0  0.00000000000E+00  0.00000000000E+00  0.74726048025E+02  0.74726048025E+02  0.00000000000E+00 0. -1.
         22   -1    0    0    0    0 -0.00000000000E+00 -0.00000000000E+00 -0.26480283904E+00  0.26480283904E+00  0.00000000000E+00 0.  1.
          4    1    1    2  501    0 -0.35183176963E+01 -0.59673518784E-01  0.14292408641E+02  0.14719207353E+02  0.00000000000E+00 0.  1.
         -4    1    1    2    0  501  0.35183176963E+01  0.59673518784E-01  0.60168836545E+02  0.60271643511E+02  0.00000000000E+00 0. -1.
<mgrwt>
<rscale>  0 0.35188237E+01</rscale>
<asrwt>0</asrwt>
<pdfrwt beam="1">0</pdfrwt>
<pdfrwt beam="2">0</pdfrwt>
<totfact> 0.54910101E+11</totfact>
</mgrwt>
</event>
<event>
 4    2  0.2130683E+006  0.2325512E+01  0.7546771E-02  0.2790841E+00
         22   -1    0    0    0    0  0.00000000000E+00  0.00000000000E+00  0.15348047789E+01  0.15348047789E+01  0.00000000000E+00 0. -1.
         22   -1    0    0    0    0 -0.00000000000E+00 -0.00000000000E+00 -0.36659596721E+01  0.36659596721E+01  0.00000000000E+00 0.  1.
          4    1    1    2  501    0  0.22058743531E+01  0.73629011352E+00 -0.55310566702E+00  0.23903829551E+01  0.00000000000E+00 0. -1.
         -4    1    1    2    0  501 -0.22058743531E+01 -0.73629011352E+00 -0.15780492262E+01  0.28103814960E+01  0.00000000000E+00 0.  1.
<mgrwt>
<rscale>  0 0.23255117E+01</rscale>
<asrwt>0</asrwt>
<pdfrwt beam="1">0</pdfrwt>
<pdfrwt beam="2">0</pdfrwt>
<totfact> 0.32091813E+12</totfact>
</mgrwt>
</event>
<event>
 4    2  0.2130683E+006  0.4736837E+01  0.7546771E-02  0.2155791E+00
         22   -1    0    0    0    0  0.00000000000E+00  0.00000000000E+00  0.11289170982E+02  0.11289170982E+02  0.00000000000E+00 0.  1.
         22   -1    0    0    0    0 -0.00000000000E+00 -0.00000000000E+00 -0.91284055665E+01  0.91284055665E+01  0.00000000000E+00 0. -1.
          4    1    1    2  501    0 -0.46737148576E+01 -0.77072320539E+00 -0.79488803826E+01  0.92532331737E+01  0.00000000000E+00 0. -1.
         -4    1    1    2    0  501  0.46737148576E+01  0.77072320539E+00  0.10109645798E+02  0.11164343375E+02  0.00000000000E+00 0.  1.
<mgrwt>
<rscale>  0 0.47368370E+01</rscale>
<asrwt>0</asrwt>
<pdfrwt beam="1">0</pdfrwt>
<pdfrwt beam="2">0</pdfrwt>
<totfact> 0.10294274E+11</totfact>
</mgrwt>
</event>
<event>
 4    2  0.2130683E+006  0.2727572E+01  0.7546771E-02  0.2615977E+00
         22   -1    0    0    0    0  0.00000000000E+00  0.00000000000E+00  0.61615036190E+01  0.61615036190E+01  0.00000000000E+00 0.  1.
         22   -1    0    0    0    0 -0.00000000000E+00 -0.00000000000E+00 -0.20922114539E+01  0.20922114539E+01  0.00000000000E+00 0. -1.
          4    1    1    2  501    0 -0.76881659543E+00 -0.26169770496E+01 -0.64904278321E+00  0.28037304381E+01  0.00000000000E+00 0. -1.
         -4    1    1    2    0  501  0.76881659543E+00  0.26169770496E+01  0.47183349483E+01  0.54499846348E+01  0.00000000000E+00 0.  1.
<mgrwt>
<rscale>  0 0.27275718E+01</rscale>
<asrwt>0</asrwt>
<pdfrwt beam="1">0</pdfrwt>
<pdfrwt beam="2">0</pdfrwt>
<totfact> 0.12144727E+12</totfact>
</mgrwt>
</event>
<event>
 4    2  0.2130683E+006  0.2107025E+01  0.7546771E-02  0.2912049E+00
         22   -1    0    0    0    0  0.00000000000E+00  0.00000000000E+00  0.36482804263E+00  0.36482804263E+00  0.00000000000E+00 0.  1.
         22   -1    0    0    0    0 -0.00000000000E+00 -0.00000000000E+00 -0.13103046404E+02  0.13103046404E+02  0.00000000000E+00 0. -1.
          4    1    1    2  501    0  0.17275700129E+01 -0.12062574497E+01 -0.81671141855E+01  0.84345307696E+01  0.00000000000E+00 0. -1.
         -4    1    1    2    0  501 -0.17275700129E+01  0.12062574497E+01 -0.45711041758E+01  0.50333436769E+01  0.00000000000E+00 0.  1.
<mgrwt>
<rscale>  0 0.21070252E+01</rscale>
<asrwt>0</asrwt>
<pdfrwt beam="1">0</pdfrwt>
<pdfrwt beam="2">0</pdfrwt>
<totfact> 0.35780319E+12</totfact>
</mgrwt>
</event>
<event>
 4    2  0.2130683E+006  0.3066994E+01  0.7546771E-02  0.2501424E+00
         22   -1    0    0    0    0  0.00000000000E+00  0.00000000000E+00  0.16783910994E+03  0.16783910994E+03  0.00000000000E+00 0.  1.
         22   -1    0    0    0    0 -0.00000000000E+00 -0.00000000000E+00 -0.36225605795E+00  0.36225605795E+00  0.00000000000E+00 0. -1.
          4    1    1    2  501    0  0.29326905663E+01  0.89765067515E+00  0.64165266207E+01  0.71118397455E+01  0.00000000000E+00 0. -1.
         -4    1    1    2    0  501 -0.29326905663E+01 -0.89765067515E+00  0.16106032726E+03  0.16108952625E+03  0.00000000000E+00 0.  1.
<mgrwt>
<rscale>  0 0.30669938E+01</rscale>
<asrwt>0</asrwt>
<pdfrwt beam="1">0</pdfrwt>
<pdfrwt beam="2">0</pdfrwt>
<totfact> 0.12138621E+11</totfact>
</mgrwt>
</event>
<event>
 4    2  0.2130683E+006  0.2182200E+01  0.7546771E-02  0.2867721E+00
         22   -1    0    0    0    0  0.00000000000E+00  0.00000000000E+00  0.61224271421E+01  0.61224271421E+01  0.00000000000E+00 0.  1.
         22   -1    0    0    0    0 -0.00000000000E+00 -0.00000000000E+00 -0.12152215261E+01  0.12152215261E+01  0.00000000000E+00 0. -1.
          4    1    1    2  501    0 -0.19700549093E+01  0.93855343104E+00  0.25244444492E+00  0.21967537609E+01  0.00000000000E+00 0. -1.
         -4    1    1    2    0  501  0.19700549093E+01 -0.93855343104E+00  0.46547611710E+01  0.51408949073E+01  0.00000000000E+00 0.  1.
<mgrwt>
<rscale>  0 0.21822005E+01</rscale>
<asrwt>0</asrwt>
<pdfrwt beam="1">0</pdfrwt>
<pdfrwt beam="2">0</pdfrwt>
<totfact> 0.22882130E+12</totfact>
</mgrwt>
</event>
<event>
 4    2  0.2130683E+006  0.4009264E+01  0.7546771E-02  0.2275527E+00
         22   -1    0    0    0    0  0.00000000000E+00  0.00000000000E+00  0.18447600136E+01  0.18447600136E+01  0.00000000000E+00 0.  1.
         22   -1    0    0    0    0 -0.00000000000E+00 -0.00000000000E+00 -0.92225247529E+01  0.92225247529E+01  0.00000000000E+00 0. -1.
          4    1    1    2  501    0 -0.39963388383E+01  0.32166745795E+00 -0.49890037736E+01  0.64003400470E+01  0.00000000000E+00 0. -1.
         -4    1    1    2    0  501  0.39963388383E+01 -0.32166745795E+00 -0.23887609657E+01  0.46669447195E+01  0.00000000000E+00 0.  1.
<mgrwt>
<rscale>  0 0.40092635E+01</rscale>
<asrwt>0</asrwt>
<pdfrwt beam="1">0</pdfrwt>
<pdfrwt beam="2">0</pdfrwt>
<totfact> 0.86616012E+11</totfact>
</mgrwt>
</event>
<event>
 4    2  0.2130683E+006  0.2296223E+01  0.7546771E-02  0.2805809E+00
         22   -1    0    0    0    0  0.00000000000E+00  0.00000000000E+00  0.24775300327E+00  0.24775300327E+00  0.00000000000E+00 0. -1.
         22   -1    0    0    0    0 -0.00000000000E+00 -0.00000000000E+00 -0.26702268085E+02  0.26702268085E+02  0.00000000000E+00 0.  1.
          4    1    1    2  501    0  0.12297181111E+01  0.19391836959E+01 -0.19298419079E+02  0.19434547049E+02  0.00000000000E+00 0. -1.
         -4    1    1    2    0  501 -0.12297181111E+01 -0.19391836959E+01 -0.71560960027E+01  0.75154740395E+01  0.00000000000E+00 0.  1.
<mgrwt>
<rscale>  0 0.22962230E+01</rscale>
<asrwt>0</asrwt>
<pdfrwt beam="1">0</pdfrwt>
<pdfrwt beam="2">0</pdfrwt>
<totfact> 0.22784121E+12</totfact>
</mgrwt>
</event>
<event>
 4    2  0.2130683E+006  0.2122388E+01  0.7546771E-02  0.2902743E+00
         22   -1    0    0    0    0  0.00000000000E+00  0.00000000000E+00  0.13183065134E+01  0.13183065134E+01  0.00000000000E+00 0. -1.
         22   -1    0    0    0    0 -0.00000000000E+00 -0.00000000000E+00 -0.38436656784E+01  0.38436656784E+01  0.00000000000E+00 0.  1.
          4    1    1    2  501    0  0.19745015022E+01  0.77837979937E+00 -0.21226902421E+01  0.30017236978E+01  0.00000000000E+00 0.  1.
         -4    1    1    2    0  501 -0.19745015022E+01 -0.77837979937E+00 -0.40266892296E+00  0.21602484940E+01  0.00000000000E+00 0. -1.
<mgrwt>
<rscale>  0 0.21223881E+01</rscale>
<asrwt>0</asrwt>
<pdfrwt beam="1">0</pdfrwt>
<pdfrwt beam="2">0</pdfrwt>
<totfact> 0.36151992E+12</totfact>
</mgrwt>
</event>
<event>
 4    2  0.2130683E+006  0.2254813E+01  0.7546771E-02  0.2827603E+00
         22   -1    0    0    0    0  0.00000000000E+00  0.00000000000E+00  0.94852952314E+00  0.94852952314E+00  0.00000000000E+00 0. -1.
         22   -1    0    0    0    0 -0.00000000000E+00 -0.00000000000E+00 -0.98969476168E+01  0.98969476168E+01  0.00000000000E+00 0.  1.
          4    1    1    2  501    0 -0.21200697478E+01 -0.76778033334E+00 -0.81457356404E+01  0.84520525022E+01  0.00000000000E+00 0.  1.
         -4    1    1    2    0  501  0.21200697478E+01  0.76778033334E+00 -0.80268245323E+00  0.23934246377E+01  0.00000000000E+00 0. -1.
<mgrwt>
<rscale>  0 0.22548132E+01</rscale>
<asrwt>0</asrwt>
<pdfrwt beam="1">0</pdfrwt>
<pdfrwt beam="2">0</pdfrwt>
<totfact> 0.17066627E+12</totfact>
</mgrwt>
</event>
<event>
 4    2  0.2130683E+006  0.2000466E+01  0.7546771E-02  0.2980414E+00
         22   -1    0    0    0    0  0.00000000000E+00  0.00000000000E+00  0.38115073052E+00  0.38115073052E+00  0.00000000000E+00 0.  1.
         22   -1    0    0    0    0 -0.00000000000E+00 -0.00000000000E+00 -0.18734740203E+02  0.18734740203E+02  0.00000000000E+00 0. -1.
          4    1    1    2  501    0 -0.11702625863E+01 -0.16224517956E+01 -0.15513751817E+02  0.15642198048E+02  0.00000000000E+00 0. -1.
         -4    1    1    2    0  501  0.11702625863E+01  0.16224517956E+01 -0.28398376557E+01  0.34736928852E+01  0.00000000000E+00 0.  1.
<mgrwt>
<rscale>  0 0.20004660E+01</rscale>
<asrwt>0</asrwt>
<pdfrwt beam="1">0</pdfrwt>
<pdfrwt beam="2">0</pdfrwt>
<totfact> 0.21917070E+12</totfact>
</mgrwt>
</event>
<event>
 4    2  0.2130683E+006  0.2721443E+01  0.7546771E-02  0.2618283E+00
         22   -1    0    0    0    0  0.00000000000E+00  0.00000000000E+00  0.13791736420E+02  0.13791736420E+02  0.00000000000E+00 0. -1.
         22   -1    0    0    0    0 -0.00000000000E+00 -0.00000000000E+00 -0.54070836084E+00  0.54070836084E+00  0.00000000000E+00 0.  1.
          4    1    1    2  501    0  0.11225103228E+01 -0.24791578937E+01  0.72184581297E+01  0.77144274613E+01  0.00000000000E+00 0. -1.
         -4    1    1    2    0  501 -0.11225103228E+01  0.24791578937E+01  0.60325699291E+01  0.66180173191E+01  0.00000000000E+00 0.  1.
<mgrwt>
<rscale>  0 0.27214432E+01</rscale>
<asrwt>0</asrwt>
<pdfrwt beam="1">0</pdfrwt>
<pdfrwt beam="2">0</pdfrwt>
<totfact> 0.21567343E+12</totfact>
</mgrwt>
</event>
<event>
 4    2  0.2130683E+006  0.2483077E+01  0.7546771E-02  0.2716038E+00
         22   -1    0    0    0    0  0.00000000000E+00  0.00000000000E+00  0.17276171893E+01  0.17276171893E+01  0.00000000000E+00 0.  1.
         22   -1    0    0    0    0 -0.00000000000E+00 -0.00000000000E+00 -0.35708465141E+01  0.35708465141E+01  0.00000000000E+00 0. -1.
          4    1    1    2  501    0 -0.12802316505E+00 -0.24797744639E+01 -0.98366691922E+00  0.26708185881E+01  0.00000000000E+00 0.  1.
         -4    1    1    2    0  501  0.12802316505E+00  0.24797744639E+01 -0.85956240557E+00  0.26276451153E+01  0.00000000000E+00 0. -1.
<mgrwt>
<rscale>  0 0.24830770E+01</rscale>
<asrwt>0</asrwt>
<pdfrwt beam="1">0</pdfrwt>
<pdfrwt beam="2">0</pdfrwt>
<totfact> 0.28878021E+12</totfact>
</mgrwt>
</event>
<event>
 4    2  0.2130683E+006  0.3284508E+01  0.7546771E-02  0.2439261E+00
         22   -1    0    0    0    0  0.00000000000E+00  0.00000000000E+00  0.54549895692E+00  0.54549895692E+00  0.00000000000E+00 0. -1.
         22   -1    0    0    0    0 -0.00000000000E+00 -0.00000000000E+00 -0.24851550291E+02  0.24851550291E+02  0.00000000000E+00 0.  1.
          4    1    1    2  501    0 -0.32760394000E+01 -0.23570963254E+00 -0.17891572734E+02  0.18190557113E+02  0.00000000000E+00 0.  1.
         -4    1    1    2    0  501  0.32760394000E+01  0.23570963254E+00 -0.64144786001E+01  0.72064921351E+01  0.00000000000E+00 0. -1.
<mgrwt>
<rscale>  0 0.32845081E+01</rscale>
<asrwt>0</asrwt>
<pdfrwt beam="1">0</pdfrwt>
<pdfrwt beam="2">0</pdfrwt>
<totfact> 0.10271925E+12</totfact>
</mgrwt>
</event>
<event>
 4    2  0.2130683E+006  0.2358918E+01  0.7546771E-02  0.2774197E+00
         22   -1    0    0    0    0  0.00000000000E+00  0.00000000000E+00  0.13451645890E+02  0.13451645890E+02  0.00000000000E+00 0. -1.
         22   -1    0    0    0    0 -0.00000000000E+00 -0.00000000000E+00 -0.21934455484E+02  0.21934455484E+02  0.00000000000E+00 0.  1.
          4    1    1    2  501    0 -0.23863048818E+00 -0.23468168061E+01 -0.21766822939E+02  0.21894270358E+02  0.00000000000E+00 0.  1.
         -4    1    1    2    0  501  0.23863048818E+00  0.23468168061E+01  0.13284013345E+02  0.13491831016E+02  0.00000000000E+00 0. -1.
<mgrwt>
<rscale>  0 0.23589179E+01</rscale>
<asrwt>0</asrwt>
<pdfrwt beam="1">0</pdfrwt>
<pdfrwt beam="2">0</pdfrwt>
<totfact> 0.28314469E+10</totfact>
</mgrwt>
</event>
<event>
 4    2  0.2130683E+006  0.2955141E+01  0.7546771E-02  0.2536549E+00
         22   -1    0    0    0    0  0.00000000000E+00  0.00000000000E+00  0.20512235923E+02  0.20512235923E+02  0.00000000000E+00 0. -1.
         22   -1    0    0    0    0 -0.00000000000E+00 -0.00000000000E+00 -0.42617528012E+00  0.42617528012E+00  0.00000000000E+00 0.  1.
          4    1    1    2  501    0  0.29536311308E+01 -0.94460130143E-01  0.97080773884E+01  0.10147887768E+02  0.00000000000E+00 0. -1.
         -4    1    1    2    0  501 -0.29536311308E+01  0.94460130143E-01  0.10377983255E+02  0.10790523435E+02  0.00000000000E+00 0.  1.
<mgrwt>
<rscale>  0 0.29551412E+01</rscale>
<asrwt>0</asrwt>
<pdfrwt beam="1">0</pdfrwt>
<pdfrwt beam="2">0</pdfrwt>
<totfact> 0.17266696E+12</totfact>
</mgrwt>
</event>
<event>
 4    2  0.2130683E+006  0.3969209E+01  0.7546771E-02  0.2283219E+00
         22   -1    0    0    0    0  0.00000000000E+00  0.00000000000E+00  0.65168876899E+01  0.65168876899E+01  0.00000000000E+00 0.  1.
         22   -1    0    0    0    0 -0.00000000000E+00 -0.00000000000E+00 -0.24836053490E+02  0.24836053490E+02  0.00000000000E+00 0. -1.
          4    1    1    2  501    0 -0.36707953932E+01  0.15099271984E+01 -0.24053561603E+02  0.24378852408E+02  0.00000000000E+00 0. -1.
         -4    1    1    2    0  501  0.36707953932E+01 -0.15099271984E+01  0.57343958030E+01  0.69740887712E+01  0.00000000000E+00 0.  1.
<mgrwt>
<rscale>  0 0.39692089E+01</rscale>
<asrwt>0</asrwt>
<pdfrwt beam="1">0</pdfrwt>
<pdfrwt beam="2">0</pdfrwt>
<totfact> 0.58150069E+10</totfact>
</mgrwt>
</event>
<event>
 4    2  0.2130683E+006  0.2228253E+01  0.7546771E-02  0.2841987E+00
         22   -1    0    0    0    0  0.00000000000E+00  0.00000000000E+00  0.63179879179E+01  0.63179879179E+01  0.00000000000E+00 0. -1.
         22   -1    0    0    0    0 -0.00000000000E+00 -0.00000000000E+00 -0.80960772730E+00  0.80960772730E+00  0.00000000000E+00 0.  1.
          4    1    1    2  501    0  0.13810904433E+01  0.17486281579E+01  0.21439455973E+01  0.30921859536E+01  0.00000000000E+00 0.  1.
         -4    1    1    2    0  501 -0.13810904433E+01 -0.17486281579E+01  0.33644345932E+01  0.40354096916E+01  0.00000000000E+00 0. -1.
<mgrwt>
<rscale>  0 0.22282530E+01</rscale>
<asrwt>0</asrwt>
<pdfrwt beam="1">0</pdfrwt>
<pdfrwt beam="2">0</pdfrwt>
<totfact> 0.35044956E+12</totfact>
</mgrwt>
</event>
<event>
 4    2  0.2130683E+006  0.2149868E+01  0.7546771E-02  0.2886419E+00
         22   -1    0    0    0    0  0.00000000000E+00  0.00000000000E+00  0.27469111252E+01  0.27469111252E+01  0.00000000000E+00 0.  1.
         22   -1    0    0    0    0 -0.00000000000E+00 -0.00000000000E+00 -0.22303002339E+01  0.22303002339E+01  0.00000000000E+00 0. -1.
          4    1    1    2  501    0 -0.21144530969E+01 -0.38861525514E+00 -0.97493744461E+00  0.23606009270E+01  0.00000000000E+00 0. -1.
         -4    1    1    2    0  501  0.21144530969E+01  0.38861525514E+00  0.14915483359E+01  0.26166104322E+01  0.00000000000E+00 0.  1.
<mgrwt>
<rscale>  0 0.21498683E+01</rscale>
<asrwt>0</asrwt>
<pdfrwt beam="1">0</pdfrwt>
<pdfrwt beam="2">0</pdfrwt>
<totfact> 0.29204304E+12</totfact>
</mgrwt>
</event>
<event>
 4    2  0.2130683E+006  0.2092510E+01  0.7546771E-02  0.2920962E+00
         22   -1    0    0    0    0  0.00000000000E+00  0.00000000000E+00  0.11438873599E+00  0.11438873599E+00  0.00000000000E+00 0. -1.
         22   -1    0    0    0    0 -0.00000000000E+00 -0.00000000000E+00 -0.49421033172E+02  0.49421033172E+02  0.00000000000E+00 0.  1.
          4    1    1    2  501    0 -0.11172293947E+01 -0.17692929861E+01 -0.36413856334E+02  0.36473929488E+02  0.00000000000E+00 0.  1.
         -4    1    1    2    0  501  0.11172293947E+01  0.17692929861E+01 -0.12892788102E+02  0.13061492420E+02  0.00000000000E+00 0. -1.
<mgrwt>
<rscale>  0 0.20925103E+01</rscale>
<asrwt>0</asrwt>
<pdfrwt beam="1">0</pdfrwt>
<pdfrwt beam="2">0</pdfrwt>
<totfact> 0.24339451E+12</totfact>
</mgrwt>
</event>
<event>
 4    2  0.2130683E+006  0.2687637E+01  0.7546771E-02  0.2631174E+00
         22   -1    0    0    0    0  0.00000000000E+00  0.00000000000E+00  0.20066399413E+01  0.20066399413E+01  0.00000000000E+00 0. -1.
         22   -1    0    0    0    0 -0.00000000000E+00 -0.00000000000E+00 -0.53758931343E+01  0.53758931343E+01  0.00000000000E+00 0.  1.
          4    1    1    2  501    0 -0.21014140465E+01 -0.16755445294E+01 -0.38063549674E+01  0.46595845955E+01  0.00000000000E+00 0.  1.
         -4    1    1    2    0  501  0.21014140465E+01  0.16755445294E+01  0.43710177436E+00  0.27229484802E+01  0.00000000000E+00 0. -1.
<mgrwt>
<rscale>  0 0.26876366E+01</rscale>
<asrwt>0</asrwt>
<pdfrwt beam="1">0</pdfrwt>
<pdfrwt beam="2">0</pdfrwt>
<totfact> 0.14990476E+12</totfact>
</mgrwt>
</event>
<event>
 4    2  0.2130683E+006  0.2504257E+01  0.7546771E-02  0.2706656E+00
         22   -1    0    0    0    0  0.00000000000E+00  0.00000000000E+00  0.39000263250E+02  0.39000263250E+02  0.00000000000E+00 0. -1.
         22   -1    0    0    0    0 -0.00000000000E+00 -0.00000000000E+00 -0.21017846506E+00  0.21017846506E+00  0.00000000000E+00 0.  1.
          4    1    1    2  501    0 -0.15304142101E+01 -0.19822045944E+01  0.28897580407E+02  0.29005886577E+02  0.00000000000E+00 0. -1.
         -4    1    1    2    0  501  0.15304142101E+01  0.19822045944E+01  0.98925043775E+01  0.10204555138E+02  0.00000000000E+00 0.  1.
<mgrwt>
<rscale>  0 0.25042569E+01</rscale>
<asrwt>0</asrwt>
<pdfrwt beam="1">0</pdfrwt>
<pdfrwt beam="2">0</pdfrwt>
<totfact> 0.16858928E+12</totfact>
</mgrwt>
</event>
<event>
 4    2  0.2130683E+006  0.5706176E+01  0.7546771E-02  0.2047085E+00
         22   -1    0    0    0    0  0.00000000000E+00  0.00000000000E+00  0.37356172506E+02  0.37356172506E+02  0.00000000000E+00 0.  1.
         22   -1    0    0    0    0 -0.00000000000E+00 -0.00000000000E+00 -0.91212499098E+00  0.91212499098E+00  0.00000000000E+00 0. -1.
          4    1    1    2  501    0  0.27711827556E+00 -0.56994433557E+01  0.14189960500E+02  0.15294293972E+02  0.00000000000E+00 0. -1.
         -4    1    1    2    0  501 -0.27711827556E+00  0.56994433557E+01  0.22254087015E+02  0.22974003525E+02  0.00000000000E+00 0.  1.
<mgrwt>
<rscale>  0 0.57061764E+01</rscale>
<asrwt>0</asrwt>
<pdfrwt beam="1">0</pdfrwt>
<pdfrwt beam="2">0</pdfrwt>
<totfact> 0.34067953E+11</totfact>
</mgrwt>
</event>
<event>
 4    2  0.2130683E+006  0.3803679E+01  0.7546771E-02  0.2316469E+00
         22   -1    0    0    0    0  0.00000000000E+00  0.00000000000E+00  0.66479181352E+02  0.66479181352E+02  0.00000000000E+00 0.  1.
         22   -1    0    0    0    0 -0.00000000000E+00 -0.00000000000E+00 -0.34632613228E+00  0.34632613228E+00  0.00000000000E+00 0. -1.
          4    1    1    2  501    0  0.37140436484E+01  0.82088517740E+00  0.12698369127E+02  0.13255811978E+02  0.00000000000E+00 0. -1.
         -4    1    1    2    0  501 -0.37140436484E+01 -0.82088517740E+00  0.53434486092E+02  0.53569695507E+02  0.00000000000E+00 0.  1.
<mgrwt>
<rscale>  0 0.38036788E+01</rscale>
<asrwt>0</asrwt>
<pdfrwt beam="1">0</pdfrwt>
<pdfrwt beam="2">0</pdfrwt>
<totfact> 0.47631539E+11</totfact>
</mgrwt>
</event>
<event>
 4    2  0.2130683E+006  0.4273004E+01  0.7546771E-02  0.2227961E+00
         22   -1    0    0    0    0  0.00000000000E+00  0.00000000000E+00  0.15604652528E+02  0.15604652528E+02  0.00000000000E+00 0. -1.
         22   -1    0    0    0    0 -0.00000000000E+00 -0.00000000000E+00 -0.14555660888E+01  0.14555660888E+01  0.00000000000E+00 0.  1.
          4    1    1    2  501    0  0.31890043775E+01 -0.28440836783E+01  0.32967560291E+01  0.53969585142E+01  0.00000000000E+00 0.  1.
         -4    1    1    2    0  501 -0.31890043775E+01  0.28440836783E+01  0.10852330411E+02  0.11663260103E+02  0.00000000000E+00 0. -1.
<mgrwt>
<rscale>  0 0.42730037E+01</rscale>
<asrwt>0</asrwt>
<pdfrwt beam="1">0</pdfrwt>
<pdfrwt beam="2">0</pdfrwt>
<totfact> 0.59933084E+11</totfact>
</mgrwt>
</event>
<event>
 4    2  0.2130683E+006  0.4857423E+01  0.7546771E-02  0.2140417E+00
         22   -1    0    0    0    0  0.00000000000E+00  0.00000000000E+00  0.12002936701E+02  0.12002936701E+02  0.00000000000E+00 0.  1.
         22   -1    0    0    0    0 -0.00000000000E+00 -0.00000000000E+00 -0.67528868479E+01  0.67528868479E+01  0.00000000000E+00 0. -1.
          4    1    1    2  501    0 -0.48380526474E+01 -0.43335901677E+00 -0.52708481147E+01  0.71677327869E+01  0.00000000000E+00 0. -1.
         -4    1    1    2    0  501  0.48380526474E+01  0.43335901677E+00  0.10520897968E+02  0.11588090762E+02  0.00000000000E+00 0.  1.
<mgrwt>
<rscale>  0 0.48574225E+01</rscale>
<asrwt>0</asrwt>
<pdfrwt beam="1">0</pdfrwt>
<pdfrwt beam="2">0</pdfrwt>
<totfact> 0.13719871E+11</totfact>
</mgrwt>
</event>
<event>
 4    2  0.2130683E+006  0.2636385E+01  0.7546771E-02  0.2651294E+00
         22   -1    0    0    0    0  0.00000000000E+00  0.00000000000E+00  0.17307252287E+00  0.17307252287E+00  0.00000000000E+00 0. -1.
         22   -1    0    0    0    0 -0.00000000000E+00 -0.00000000000E+00 -0.40176275143E+02  0.40176275143E+02  0.00000000000E+00 0.  1.
          4    1    1    2  501    0  0.61449113517E+00  0.25637723342E+01 -0.20412284138E+02  0.20581833535E+02  0.00000000000E+00 0.  1.
         -4    1    1    2    0  501 -0.61449113517E+00 -0.25637723342E+01 -0.19590918483E+02  0.19767514131E+02  0.00000000000E+00 0. -1.
<mgrwt>
<rscale>  0 0.26363854E+01</rscale>
<asrwt>0</asrwt>
<pdfrwt beam="1">0</pdfrwt>
<pdfrwt beam="2">0</pdfrwt>
<totfact> 0.20144507E+12</totfact>
</mgrwt>
</event>
<event>
 4    2  0.2130683E+006  0.2194722E+01  0.7546771E-02  0.2860622E+00
         22   -1    0    0    0    0  0.00000000000E+00  0.00000000000E+00  0.74970626628E+00  0.74970626628E+00  0.00000000000E+00 0. -1.
         22   -1    0    0    0    0 -0.00000000000E+00 -0.00000000000E+00 -0.65097514833E+01  0.65097514833E+01  0.00000000000E+00 0.  1.
          4    1    1    2  501    0  0.12622369442E+01  0.17954278229E+01 -0.32943743731E+01  0.39584979072E+01  0.00000000000E+00 0.  1.
         -4    1    1    2    0  501 -0.12622369442E+01 -0.17954278229E+01 -0.24656708439E+01  0.33009598424E+01  0.00000000000E+00 0. -1.
<mgrwt>
<rscale>  0 0.21947217E+01</rscale>
<asrwt>0</asrwt>
<pdfrwt beam="1">0</pdfrwt>
<pdfrwt beam="2">0</pdfrwt>
<totfact> 0.36905701E+12</totfact>
</mgrwt>
</event>
<event>
 4    2  0.2130683E+006  0.2038761E+01  0.7546771E-02  0.2955042E+00
         22   -1    0    0    0    0  0.00000000000E+00  0.00000000000E+00  0.15990517441E+02  0.15990517441E+02  0.00000000000E+00 0.  1.
         22   -1    0    0    0    0 -0.00000000000E+00 -0.00000000000E+00 -0.37037770132E+00  0.37037770132E+00  0.00000000000E+00 0. -1.
          4    1    1    2  501    0 -0.10225834319E+01 -0.17637660783E+01  0.12277077600E+02  0.12445207192E+02  0.00000000000E+00 0.  1.
         -4    1    1    2    0  501  0.10225834319E+01  0.17637660783E+01  0.33430621389E+01  0.39156879496E+01  0.00000000000E+00 0. -1.
<mgrwt>
<rscale>  0 0.20387613E+01</rscale>
<asrwt>0</asrwt>
<pdfrwt beam="1">0</pdfrwt>
<pdfrwt beam="2">0</pdfrwt>
<totfact> 0.27541343E+12</totfact>
</mgrwt>
</event>
<event>
 4    2  0.2130683E+006  0.2602166E+01  0.7546771E-02  0.2665133E+00
         22   -1    0    0    0    0  0.00000000000E+00  0.00000000000E+00  0.37642204681E+01  0.37642204681E+01  0.00000000000E+00 0.  1.
         22   -1    0    0    0    0 -0.00000000000E+00 -0.00000000000E+00 -0.30898839365E+01  0.30898839365E+01  0.00000000000E+00 0. -1.
          4    1    1    2  501    0  0.19164752886E+01 -0.17602248852E+01 -0.18780596344E+01  0.32091084695E+01  0.00000000000E+00 0. -1.
         -4    1    1    2    0  501 -0.19164752886E+01  0.17602248852E+01  0.25523961660E+01  0.36449959351E+01  0.00000000000E+00 0.  1.
<mgrwt>
<rscale>  0 0.26021662E+01</rscale>
<asrwt>0</asrwt>
<pdfrwt beam="1">0</pdfrwt>
<pdfrwt beam="2">0</pdfrwt>
<totfact> 0.13818971E+12</totfact>
</mgrwt>
</event>
<event>
 4    2  0.2130683E+006  0.2278828E+01  0.7546771E-02  0.2814872E+00
         22   -1    0    0    0    0  0.00000000000E+00  0.00000000000E+00  0.39793636067E+00  0.39793636067E+00  0.00000000000E+00 0. -1.
         22   -1    0    0    0    0 -0.00000000000E+00 -0.00000000000E+00 -0.15298853336E+02  0.15298853336E+02  0.00000000000E+00 0.  1.
          4    1    1    2  501    0  0.21456884028E+01  0.76751447706E+00 -0.10459546964E+02  0.10704913819E+02  0.00000000000E+00 0.  1.
         -4    1    1    2    0  501 -0.21456884028E+01 -0.76751447706E+00 -0.44413700120E+01  0.49918758777E+01  0.00000000000E+00 0. -1.
<mgrwt>
<rscale>  0 0.22788280E+01</rscale>
<asrwt>0</asrwt>
<pdfrwt beam="1">0</pdfrwt>
<pdfrwt beam="2">0</pdfrwt>
<totfact> 0.26830154E+12</totfact>
</mgrwt>
</event>
<event>
 4    2  0.2130683E+006  0.2997116E+01  0.7546771E-02  0.2523092E+00
         22   -1    0    0    0    0  0.00000000000E+00  0.00000000000E+00  0.85669288745E+00  0.85669288745E+00  0.00000000000E+00 0.  1.
         22   -1    0    0    0    0 -0.00000000000E+00 -0.00000000000E+00 -0.10860106727E+02  0.10860106727E+02  0.00000000000E+00 0. -1.
          4    1    1    2  501    0  0.19709781799E+01 -0.22578636957E+01 -0.39134007434E+01  0.49292401881E+01  0.00000000000E+00 0.  1.
         -4    1    1    2    0  501 -0.19709781799E+01  0.22578636957E+01 -0.60900130959E+01  0.67875594261E+01  0.00000000000E+00 0. -1.
<mgrwt>
<rscale>  0 0.29971159E+01</rscale>
<asrwt>0</asrwt>
<pdfrwt beam="1">0</pdfrwt>
<pdfrwt beam="2">0</pdfrwt>
<totfact> 0.17126898E+12</totfact>
</mgrwt>
</event>
<event>
 4    2  0.2130683E+006  0.2306491E+01  0.7546771E-02  0.2800520E+00
         22   -1    0    0    0    0  0.00000000000E+00  0.00000000000E+00  0.97747321908E+01  0.97747321908E+01  0.00000000000E+00 0.  1.
         22   -1    0    0    0    0 -0.00000000000E+00 -0.00000000000E+00 -0.11729129797E+01  0.11729129797E+01  0.00000000000E+00 0. -1.
          4    1    1    2  501    0  0.22082558325E+01 -0.66596486780E+00  0.29347368616E+00  0.23250870589E+01  0.00000000000E+00 0. -1.
         -4    1    1    2    0  501 -0.22082558325E+01  0.66596486780E+00  0.83083455249E+01  0.86225581116E+01  0.00000000000E+00 0.  1.
<mgrwt>
<rscale>  0 0.23064915E+01</rscale>
<asrwt>0</asrwt>
<pdfrwt beam="1">0</pdfrwt>
<pdfrwt beam="2">0</pdfrwt>
<totfact> 0.13591747E+12</totfact>
</mgrwt>
</event>
<event>
 4    2  0.2130683E+006  0.3084314E+01  0.7546771E-02  0.2496189E+00
         22   -1    0    0    0    0  0.00000000000E+00  0.00000000000E+00  0.15048475559E+02  0.15048475559E+02  0.00000000000E+00 0. -1.
         22   -1    0    0    0    0 -0.00000000000E+00 -0.00000000000E+00 -0.66739684658E+00  0.66739684658E+00  0.00000000000E+00 0.  1.
          4    1    1    2  501    0  0.11881284566E+01  0.28462860547E+01  0.53848803722E+01  0.62056369663E+01  0.00000000000E+00 0.  1.
         -4    1    1    2    0  501 -0.11881284566E+01 -0.28462860547E+01  0.89961983406E+01  0.95102354397E+01  0.00000000000E+00 0. -1.
<mgrwt>
<rscale>  0 0.30843141E+01</rscale>
<asrwt>0</asrwt>
<pdfrwt beam="1">0</pdfrwt>
<pdfrwt beam="2">0</pdfrwt>
<totfact> 0.15266855E+12</totfact>
</mgrwt>
</event>
<event>
 4    2  0.2130683E+006  0.2418635E+01  0.7546771E-02  0.2745525E+00
         22   -1    0    0    0    0  0.00000000000E+00  0.00000000000E+00  0.13731412331E+02  0.13731412331E+02  0.00000000000E+00 0.  1.
         22   -1    0    0    0    0 -0.00000000000E+00 -0.00000000000E+00 -0.24137673359E+01  0.24137673359E+01  0.00000000000E+00 0. -1.
          4    1    1    2  501    0 -0.22869759029E+01 -0.78710759299E+00 -0.16668288313E+01  0.29373654005E+01  0.00000000000E+00 0. -1.
         -4    1    1    2    0  501  0.22869759029E+01  0.78710759299E+00  0.12984473827E+02  0.13207814266E+02  0.00000000000E+00 0.  1.
<mgrwt>
<rscale>  0 0.24186354E+01</rscale>
<asrwt>0</asrwt>
<pdfrwt beam="1">0</pdfrwt>
<pdfrwt beam="2">0</pdfrwt>
<totfact> 0.39084704E+11</totfact>
</mgrwt>
</event>
<event>
 4    2  0.2130683E+006  0.2575053E+01  0.7546771E-02  0.2676339E+00
         22   -1    0    0    0    0  0.00000000000E+00  0.00000000000E+00  0.52400825525E+01  0.52400825525E+01  0.00000000000E+00 0. -1.
         22   -1    0    0    0    0 -0.00000000000E+00 -0.00000000000E+00 -0.59968459761E+01  0.59968459761E+01  0.00000000000E+00 0.  1.
          4    1    1    2  501    0  0.21346070676E+01  0.14402600393E+01 -0.53689761585E+01  0.59545613863E+01  0.00000000000E+00 0.  1.
         -4    1    1    2    0  501 -0.21346070676E+01 -0.14402600393E+01  0.46122127349E+01  0.52823671422E+01  0.00000000000E+00 0. -1.
<mgrwt>
<rscale>  0 0.25750527E+01</rscale>
<asrwt>0</asrwt>
<pdfrwt beam="1">0</pdfrwt>
<pdfrwt beam="2">0</pdfrwt>
<totfact> 0.42788308E+11</totfact>
</mgrwt>
</event>
<event>
 4    2  0.2130683E+006  0.2490762E+01  0.7546771E-02  0.2712617E+00
         22   -1    0    0    0    0  0.00000000000E+00  0.00000000000E+00  0.16005296703E+00  0.16005296703E+00  0.00000000000E+00 0.  1.
         22   -1    0    0    0    0 -0.00000000000E+00 -0.00000000000E+00 -0.41038843367E+02  0.41038843367E+02  0.00000000000E+00 0. -1.
          4    1    1    2  501    0  0.16727678611E+01  0.18454658735E+01 -0.25291947088E+02  0.25414296845E+02  0.00000000000E+00 0. -1.
         -4    1    1    2    0  501 -0.16727678611E+01 -0.18454658735E+01 -0.15586843312E+02  0.15784599489E+02  0.00000000000E+00 0.  1.
<mgrwt>
<rscale>  0 0.24907623E+01</rscale>
<asrwt>0</asrwt>
<pdfrwt beam="1">0</pdfrwt>
<pdfrwt beam="2">0</pdfrwt>
<totfact> 0.21378331E+12</totfact>
</mgrwt>
</event>
<event>
 4    2  0.2130683E+006  0.2132736E+01  0.7546771E-02  0.2896549E+00
         22   -1    0    0    0    0  0.00000000000E+00  0.00000000000E+00  0.11853359651E+01  0.11853359651E+01  0.00000000000E+00 0. -1.
         22   -1    0    0    0    0 -0.00000000000E+00 -0.00000000000E+00 -0.38946619977E+01  0.38946619977E+01  0.00000000000E+00 0.  1.
          4    1    1    2  501    0  0.21288037986E+01 -0.12944639338E+00 -0.16627545899E+01  0.27043141104E+01  0.00000000000E+00 0.  1.
         -4    1    1    2    0  501 -0.21288037986E+01  0.12944639338E+00 -0.10465714427E+01  0.23756838524E+01  0.00000000000E+00 0. -1.
<mgrwt>
<rscale>  0 0.21327358E+01</rscale>
<asrwt>0</asrwt>
<pdfrwt beam="1">0</pdfrwt>
<pdfrwt beam="2">0</pdfrwt>
<totfact> 0.40211291E+12</totfact>
</mgrwt>
</event>
<event>
 4    2  0.2130683E+006  0.2063434E+01  0.7546771E-02  0.2939184E+00
         22   -1    0    0    0    0  0.00000000000E+00  0.00000000000E+00  0.34863196840E+00  0.34863196840E+00  0.00000000000E+00 0.  1.
         22   -1    0    0    0    0 -0.00000000000E+00 -0.00000000000E+00 -0.14894739959E+02  0.14894739959E+02  0.00000000000E+00 0. -1.
          4    1    1    2  501    0  0.18558041770E+01 -0.90208093579E+00 -0.10507219292E+02  0.10707913728E+02  0.00000000000E+00 0. -1.
         -4    1    1    2    0  501 -0.18558041770E+01  0.90208093579E+00 -0.40388886984E+01  0.45354581991E+01  0.00000000000E+00 0.  1.
<mgrwt>
<rscale>  0 0.20634338E+01</rscale>
<asrwt>0</asrwt>
<pdfrwt beam="1">0</pdfrwt>
<pdfrwt beam="2">0</pdfrwt>
<totfact> 0.32174397E+12</totfact>
</mgrwt>
</event>
<event>
 4    2  0.2130683E+006  0.2302395E+01  0.7546771E-02  0.2802625E+00
         22   -1    0    0    0    0  0.00000000000E+00  0.00000000000E+00  0.15907699866E+00  0.15907699866E+00  0.00000000000E+00 0. -1.
         22   -1    0    0    0    0 -0.00000000000E+00 -0.00000000000E+00 -0.97795692477E+02  0.97795692477E+02  0.00000000000E+00 0.  1.
          4    1    1    2  501    0  0.22140165009E+01 -0.63178722741E+00 -0.88585184755E+02  0.88615100193E+02  0.00000000000E+00 0.  1.
         -4    1    1    2    0  501 -0.22140165009E+01  0.63178722741E+00 -0.90514307231E+01  0.93396692823E+01  0.00000000000E+00 0. -1.
<mgrwt>
<rscale>  0 0.23023953E+01</rscale>
<asrwt>0</asrwt>
<pdfrwt beam="1">0</pdfrwt>
<pdfrwt beam="2">0</pdfrwt>
<totfact> 0.66814053E+11</totfact>
</mgrwt>
</event>
<event>
 4    2  0.2130683E+006  0.1171705E+02  0.7546771E-02  0.1715605E+00
         22   -1    0    0    0    0  0.00000000000E+00  0.00000000000E+00  0.59058901376E+01  0.59058901376E+01  0.00000000000E+00 0.  1.
         22   -1    0    0    0    0 -0.00000000000E+00 -0.00000000000E+00 -0.38678091907E+02  0.38678091907E+02  0.00000000000E+00 0. -1.
          4    1    1    2  501    0  0.76198924484E+01 -0.89009258328E+01 -0.30466875560E+02  0.32642299980E+02  0.00000000000E+00 0. -1.
         -4    1    1    2    0  501 -0.76198924484E+01  0.89009258328E+01 -0.23053262100E+01  0.11941682065E+02  0.00000000000E+00 0.  1.
<mgrwt>
<rscale>  0 0.11717049E+02</rscale>
<asrwt>0</asrwt>
<pdfrwt beam="1">0</pdfrwt>
<pdfrwt beam="2">0</pdfrwt>
<totfact> 0.37135092E+10</totfact>
</mgrwt>
</event>
<event>
 4    2  0.2130683E+006  0.3217412E+01  0.7546771E-02  0.2457641E+00
         22   -1    0    0    0    0  0.00000000000E+00  0.00000000000E+00  0.26792470976E+00  0.26792470976E+00  0.00000000000E+00 0. -1.
         22   -1    0    0    0    0 -0.00000000000E+00 -0.00000000000E+00 -0.60005171436E+02  0.60005171436E+02  0.00000000000E+00 0.  1.
          4    1    1    2  501    0 -0.10432522307E+01 -0.30435772528E+01 -0.47852589380E+02  0.47960630189E+02  0.00000000000E+00 0.  1.
         -4    1    1    2    0  501  0.10432522307E+01  0.30435772528E+01 -0.11884657347E+02  0.12312465958E+02  0.00000000000E+00 0. -1.
<mgrwt>
<rscale>  0 0.32174116E+01</rscale>
<asrwt>0</asrwt>
<pdfrwt beam="1">0</pdfrwt>
<pdfrwt beam="2">0</pdfrwt>
<totfact> 0.72899534E+11</totfact>
</mgrwt>
</event>
<event>
 4    2  0.2130683E+006  0.4235966E+01  0.7546771E-02  0.2234337E+00
         22   -1    0    0    0    0  0.00000000000E+00  0.00000000000E+00  0.10830189872E+02  0.10830189872E+02  0.00000000000E+00 0. -1.
         22   -1    0    0    0    0 -0.00000000000E+00 -0.00000000000E+00 -0.27238963502E+01  0.27238963502E+01  0.00000000000E+00 0.  1.
          4    1    1    2  501    0  0.33575785913E+01  0.25826490387E+01 -0.18862882841E+00  0.42401640167E+01  0.00000000000E+00 0.  1.
         -4    1    1    2    0  501 -0.33575785913E+01 -0.25826490387E+01  0.82949223504E+01  0.93139222056E+01  0.00000000000E+00 0. -1.
<mgrwt>
<rscale>  0 0.42359662E+01</rscale>
<asrwt>0</asrwt>
<pdfrwt beam="1">0</pdfrwt>
<pdfrwt beam="2">0</pdfrwt>
<totfact> 0.45362754E+11</totfact>
</mgrwt>
</event>
<event>
 4    2  0.2130683E+006  0.2227077E+01  0.7546771E-02  0.2842632E+00
         22   -1    0    0    0    0  0.00000000000E+00  0.00000000000E+00  0.50322189968E+00  0.50322189968E+00  0.00000000000E+00 0. -1.
         22   -1    0    0    0    0 -0.00000000000E+00 -0.00000000000E+00 -0.11276724070E+02  0.11276724070E+02  0.00000000000E+00 0.  1.
          4    1    1    2  501    0 -0.63385417153E+00  0.21349710402E+01 -0.74772070883E+01  0.78018265998E+01  0.00000000000E+00 0.  1.
         -4    1    1    2    0  501  0.63385417153E+00 -0.21349710402E+01 -0.32962950823E+01  0.39781193701E+01  0.00000000000E+00 0. -1.
<mgrwt>
<rscale>  0 0.22270771E+01</rscale>
<asrwt>0</asrwt>
<pdfrwt beam="1">0</pdfrwt>
<pdfrwt beam="2">0</pdfrwt>
<totfact> 0.29909825E+12</totfact>
</mgrwt>
</event>
<event>
 4    2  0.2130683E+006  0.3258871E+01  0.7546771E-02  0.2446205E+00
         22   -1    0    0    0    0  0.00000000000E+00  0.00000000000E+00  0.66196620022E+01  0.66196620022E+01  0.00000000000E+00 0.  1.
         22   -1    0    0    0    0 -0.00000000000E+00 -0.00000000000E+00 -0.21885560140E+02  0.21885560140E+02  0.00000000000E+00 0. -1.
          4    1    1    2  501    0  0.22466971757E+01 -0.23606339498E+01 -0.21353215846E+02  0.21600464528E+02  0.00000000000E+00 0. -1.
         -4    1    1    2    0  501 -0.22466971757E+01  0.23606339498E+01  0.60873177079E+01  0.69047576149E+01  0.00000000000E+00 0.  1.
<mgrwt>
<rscale>  0 0.32588711E+01</rscale>
<asrwt>0</asrwt>
<pdfrwt beam="1">0</pdfrwt>
<pdfrwt beam="2">0</pdfrwt>
<totfact> 0.66905325E+10</totfact>
</mgrwt>
</event>
<event>
 4    2  0.2130683E+006  0.2250392E+01  0.7546771E-02  0.2829974E+00
         22   -1    0    0    0    0  0.00000000000E+00  0.00000000000E+00  0.78921576372E+00  0.78921576372E+00  0.00000000000E+00 0.  1.
         22   -1    0    0    0    0 -0.00000000000E+00 -0.00000000000E+00 -0.67129047302E+01  0.67129047302E+01  0.00000000000E+00 0. -1.
          4    1    1    2  501    0 -0.16466579298E+01  0.15338780122E+01 -0.37496133507E+01  0.43730840804E+01  0.00000000000E+00 0. -1.
         -4    1    1    2    0  501  0.16466579298E+01 -0.15338780122E+01 -0.21740756157E+01  0.31290364135E+01  0.00000000000E+00 0.  1.
<mgrwt>
<rscale>  0 0.22503920E+01</rscale>
<asrwt>0</asrwt>
<pdfrwt beam="1">0</pdfrwt>
<pdfrwt beam="2">0</pdfrwt>
<totfact> 0.33558755E+12</totfact>
</mgrwt>
</event>
<event>
 4    2  0.2130683E+006  0.2414129E+01  0.7546771E-02  0.2747642E+00
         22   -1    0    0    0    0  0.00000000000E+00  0.00000000000E+00  0.70506843722E+00  0.70506843722E+00  0.00000000000E+00 0. -1.
         22   -1    0    0    0    0 -0.00000000000E+00 -0.00000000000E+00 -0.13599708253E+02  0.13599708253E+02  0.00000000000E+00 0.  1.
          4    1    1    2  501    0  0.18680985876E+01 -0.15291260834E+01 -0.10926570432E+02  0.11190083124E+02  0.00000000000E+00 0.  1.
         -4    1    1    2    0  501 -0.18680985876E+01  0.15291260834E+01 -0.19680693832E+01  0.31146935658E+01  0.00000000000E+00 0. -1.
<mgrwt>
<rscale>  0 0.24141290E+01</rscale>
<asrwt>0</asrwt>
<pdfrwt beam="1">0</pdfrwt>
<pdfrwt beam="2">0</pdfrwt>
<totfact> 0.16243034E+12</totfact>
</mgrwt>
</event>
<event>
 4    2  0.2130683E+006  0.3142239E+01  0.7546771E-02  0.2479056E+00
         22   -1    0    0    0    0  0.00000000000E+00  0.00000000000E+00  0.12481496720E+02  0.12481496720E+02  0.00000000000E+00 0.  1.
         22   -1    0    0    0    0 -0.00000000000E+00 -0.00000000000E+00 -0.11604549128E+01  0.11604549128E+01  0.00000000000E+00 0. -1.
          4    1    1    2  501    0  0.24982234547E+01 -0.19059232919E+01  0.18121633458E+01  0.36273406259E+01  0.00000000000E+00 0. -1.
         -4    1    1    2    0  501 -0.24982234547E+01  0.19059232919E+01  0.95088784615E+01  0.10014611007E+02  0.00000000000E+00 0.  1.
<mgrwt>
<rscale>  0 0.31422387E+01</rscale>
<asrwt>0</asrwt>
<pdfrwt beam="1">0</pdfrwt>
<pdfrwt beam="2">0</pdfrwt>
<totfact> 0.10222813E+12</totfact>
</mgrwt>
</event>
<event>
 4    2  0.2130683E+006  0.8975927E+01  0.7546771E-02  0.1824623E+00
         22   -1    0    0    0    0  0.00000000000E+00  0.00000000000E+00  0.21804886587E+02  0.21804886587E+02  0.00000000000E+00 0. -1.
         22   -1    0    0    0    0 -0.00000000000E+00 -0.00000000000E+00 -0.52935846242E+01  0.52935846242E+01  0.00000000000E+00 0.  1.
          4    1    1    2  501    0  0.14196233552E+01  0.88629529935E+01  0.80972303405E+00  0.90123758037E+01  0.00000000000E+00 0.  1.
         -4    1    1    2    0  501 -0.14196233552E+01 -0.88629529935E+01  0.15701578929E+02  0.18086095408E+02  0.00000000000E+00 0. -1.
<mgrwt>
<rscale>  0 0.89759270E+01</rscale>
<asrwt>0</asrwt>
<pdfrwt beam="1">0</pdfrwt>
<pdfrwt beam="2">0</pdfrwt>
<totfact> 0.87699502E+10</totfact>
</mgrwt>
</event>
<event>
 4    2  0.2130683E+006  0.2023312E+01  0.7546771E-02  0.2965165E+00
         22   -1    0    0    0    0  0.00000000000E+00  0.00000000000E+00  0.20756634479E+02  0.20756634479E+02  0.00000000000E+00 0. -1.
         22   -1    0    0    0    0 -0.00000000000E+00 -0.00000000000E+00 -0.96578313980E+00  0.96578313980E+00  0.00000000000E+00 0.  1.
          4    1    1    2  501    0 -0.76865401650E+00 -0.18716207465E+01  0.20649566123E+00  0.20338224293E+01  0.00000000000E+00 0.  1.
         -4    1    1    2    0  501  0.76865401650E+00  0.18716207465E+01  0.19584355678E+02  0.19688595190E+02  0.00000000000E+00 0. -1.
<mgrwt>
<rscale>  0 0.20233124E+01</rscale>
<asrwt>0</asrwt>
<pdfrwt beam="1">0</pdfrwt>
<pdfrwt beam="2">0</pdfrwt>
<totfact> 0.67289161E+11</totfact>
</mgrwt>
</event>
<event>
 4    2  0.2130683E+006  0.2449299E+01  0.7546771E-02  0.2731313E+00
         22   -1    0    0    0    0  0.00000000000E+00  0.00000000000E+00  0.95743065583E+01  0.95743065583E+01  0.00000000000E+00 0.  1.
         22   -1    0    0    0    0 -0.00000000000E+00 -0.00000000000E+00 -0.10151710068E+02  0.10151710068E+02  0.00000000000E+00 0. -1.
          4    1    1    2  501    0  0.21237352991E+01 -0.12201705228E+01 -0.98424822030E+01  0.10142658608E+02  0.00000000000E+00 0. -1.
         -4    1    1    2    0  501 -0.21237352991E+01  0.12201705228E+01  0.92650786929E+01  0.95833580185E+01  0.00000000000E+00 0.  1.
<mgrwt>
<rscale>  0 0.24492994E+01</rscale>
<asrwt>0</asrwt>
<pdfrwt beam="1">0</pdfrwt>
<pdfrwt beam="2">0</pdfrwt>
<totfact> 0.11054795E+11</totfact>
</mgrwt>
</event>
<event>
 4    2  0.2130683E+006  0.2807332E+01  0.7546771E-02  0.2586810E+00
         22   -1    0    0    0    0  0.00000000000E+00  0.00000000000E+00  0.41932749189E+02  0.41932749189E+02  0.00000000000E+00 0.  1.
         22   -1    0    0    0    0 -0.00000000000E+00 -0.00000000000E+00 -0.79920222837E+00  0.79920222837E+00  0.00000000000E+00 0. -1.
          4    1    1    2  501    0  0.22244139226E+01  0.17126277421E+01  0.18812237942E+01  0.33793659236E+01  0.00000000000E+00 0. -1.
         -4    1    1    2    0  501 -0.22244139226E+01 -0.17126277421E+01  0.39252323166E+02  0.39352585493E+02  0.00000000000E+00 0.  1.
<mgrwt>
<rscale>  0 0.28073317E+01</rscale>
<asrwt>0</asrwt>
<pdfrwt beam="1">0</pdfrwt>
<pdfrwt beam="2">0</pdfrwt>
<totfact> 0.34088832E+11</totfact>
</mgrwt>
</event>
<event>
 4    2  0.2130683E+006  0.2625373E+01  0.7546771E-02  0.2655711E+00
         22   -1    0    0    0    0  0.00000000000E+00  0.00000000000E+00  0.83037089025E-01  0.83037089025E-01  0.00000000000E+00 0.  1.
         22   -1    0    0    0    0 -0.00000000000E+00 -0.00000000000E+00 -0.86069628243E+02  0.86069628243E+02  0.00000000000E+00 0. -1.
          4    1    1    2  501    0 -0.10476528697E+01 -0.24072823367E+01 -0.51120193692E+02  0.51187564778E+02  0.00000000000E+00 0. -1.
         -4    1    1    2    0  501  0.10476528697E+01  0.24072823367E+01 -0.34866397462E+02  0.34965100554E+02  0.00000000000E+00 0.  1.
<mgrwt>
<rscale>  0 0.26253733E+01</rscale>
<asrwt>0</asrwt>
<pdfrwt beam="1">0</pdfrwt>
<pdfrwt beam="2">0</pdfrwt>
<totfact> 0.16415002E+12</totfact>
</mgrwt>
</event>
<event>
 4    2  0.2130683E+006  0.2232263E+01  0.7546771E-02  0.2839795E+00
         22   -1    0    0    0    0  0.00000000000E+00  0.00000000000E+00  0.50988261596E+00  0.50988261596E+00  0.00000000000E+00 0. -1.
         22   -1    0    0    0    0 -0.00000000000E+00 -0.00000000000E+00 -0.11571112645E+02  0.11571112645E+02  0.00000000000E+00 0.  1.
          4    1    1    2  501    0  0.22320668721E+01  0.29604757716E-01 -0.31493185777E+01  0.38602080859E+01  0.00000000000E+00 0. -1.
         -4    1    1    2    0  501 -0.22320668721E+01 -0.29604757716E-01 -0.79119114516E+01  0.82207871753E+01  0.00000000000E+00 0.  1.
<mgrwt>
<rscale>  0 0.22322632E+01</rscale>
<asrwt>0</asrwt>
<pdfrwt beam="1">0</pdfrwt>
<pdfrwt beam="2">0</pdfrwt>
<totfact> 0.28559037E+12</totfact>
</mgrwt>
</event>
<event>
 4    2  0.2130683E+006  0.2204778E+01  0.7546771E-02  0.2854976E+00
         22   -1    0    0    0    0  0.00000000000E+00  0.00000000000E+00  0.37839979069E+01  0.37839979069E+01  0.00000000000E+00 0.  1.
         22   -1    0    0    0    0 -0.00000000000E+00 -0.00000000000E+00 -0.63778315167E+01  0.63778315167E+01  0.00000000000E+00 0. -1.
          4    1    1    2  501    0 -0.78405848399E+00 -0.20606548294E+01 -0.58373858005E+01  0.62398813303E+01  0.00000000000E+00 0. -1.
         -4    1    1    2    0  501  0.78405848399E+00  0.20606548294E+01  0.32435521907E+01  0.39219480932E+01  0.00000000000E+00 0.  1.
<mgrwt>
<rscale>  0 0.22047780E+01</rscale>
<asrwt>0</asrwt>
<pdfrwt beam="1">0</pdfrwt>
<pdfrwt beam="2">0</pdfrwt>
<totfact> 0.58384637E+11</totfact>
</mgrwt>
</event>
<event>
 4    2  0.2130683E+006  0.2451739E+01  0.7546771E-02  0.2730197E+00
         22   -1    0    0    0    0  0.00000000000E+00  0.00000000000E+00  0.50604291174E+01  0.50604291174E+01  0.00000000000E+00 0. -1.
         22   -1    0    0    0    0 -0.00000000000E+00 -0.00000000000E+00 -0.48219509827E+01  0.48219509827E+01  0.00000000000E+00 0.  1.
          4    1    1    2  501    0  0.17925866334E+01 -0.16726205621E+01 -0.41703798257E+01  0.48376744696E+01  0.00000000000E+00 0.  1.
         -4    1    1    2    0  501 -0.17925866334E+01  0.16726205621E+01  0.44088579605E+01  0.50447056305E+01  0.00000000000E+00 0. -1.
<mgrwt>
<rscale>  0 0.24517395E+01</rscale>
<asrwt>0</asrwt>
<pdfrwt beam="1">0</pdfrwt>
<pdfrwt beam="2">0</pdfrwt>
<totfact> 0.57761483E+11</totfact>
</mgrwt>
</event>
<event>
 4    2  0.2130683E+006  0.2101229E+01  0.7546771E-02  0.2915594E+00
         22   -1    0    0    0    0  0.00000000000E+00  0.00000000000E+00  0.84538260558E+01  0.84538260558E+01  0.00000000000E+00 0. -1.
         22   -1    0    0    0    0 -0.00000000000E+00 -0.00000000000E+00 -0.62964479683E+00  0.62964479683E+00  0.00000000000E+00 0.  1.
          4    1    1    2  501    0  0.20118150035E+01  0.60643588863E+00  0.20365393597E+01  0.29262017461E+01  0.00000000000E+00 0.  1.
         -4    1    1    2    0  501 -0.20118150035E+01 -0.60643588863E+00  0.57876418993E+01  0.61572691065E+01  0.00000000000E+00 0. -1.
<mgrwt>
<rscale>  0 0.21012292E+01</rscale>
<asrwt>0</asrwt>
<pdfrwt beam="1">0</pdfrwt>
<pdfrwt beam="2">0</pdfrwt>
<totfact> 0.32891527E+12</totfact>
</mgrwt>
</event>
<event>
 4    2  0.2130683E+006  0.2362138E+01  0.7546771E-02  0.2772616E+00
         22   -1    0    0    0    0  0.00000000000E+00  0.00000000000E+00  0.14899882510E+02  0.14899882510E+02  0.00000000000E+00 0.  1.
         22   -1    0    0    0    0 -0.00000000000E+00 -0.00000000000E+00 -0.38819063263E+00  0.38819063263E+00  0.00000000000E+00 0. -1.
          4    1    1    2  501    0 -0.18378698635E+01 -0.14838895324E+01  0.86924731730E+01  0.90077069026E+01  0.00000000000E+00 0. -1.
         -4    1    1    2    0  501  0.18378698635E+01  0.14838895324E+01  0.58192187044E+01  0.62803662401E+01  0.00000000000E+00 0.  1.
<mgrwt>
<rscale>  0 0.23621375E+01</rscale>
<asrwt>0</asrwt>
<pdfrwt beam="1">0</pdfrwt>
<pdfrwt beam="2">0</pdfrwt>
<totfact> 0.28501874E+12</totfact>
</mgrwt>
</event>
<event>
 4    2  0.2130683E+006  0.2082601E+01  0.7546771E-02  0.2927116E+00
         22   -1    0    0    0    0  0.00000000000E+00  0.00000000000E+00  0.65832519405E+00  0.65832519405E+00  0.00000000000E+00 0.  1.
         22   -1    0    0    0    0 -0.00000000000E+00 -0.00000000000E+00 -0.77624871567E+01  0.77624871567E+01  0.00000000000E+00 0. -1.
          4    1    1    2  501    0  0.20522803357E+01 -0.35408102545E+00 -0.51896389534E+01  0.55919209951E+01  0.00000000000E+00 0. -1.
         -4    1    1    2    0  501 -0.20522803357E+01  0.35408102545E+00 -0.19145230092E+01  0.28288913556E+01  0.00000000000E+00 0.  1.
<mgrwt>
<rscale>  0 0.20826012E+01</rscale>
<asrwt>0</asrwt>
<pdfrwt beam="1">0</pdfrwt>
<pdfrwt beam="2">0</pdfrwt>
<totfact> 0.34648704E+12</totfact>
</mgrwt>
</event>
<event>
 4    2  0.2130683E+006  0.2402005E+01  0.7546771E-02  0.2753375E+00
         22   -1    0    0    0    0  0.00000000000E+00  0.00000000000E+00  0.77527747786E+00  0.77527747786E+00  0.00000000000E+00 0. -1.
         22   -1    0    0    0    0 -0.00000000000E+00 -0.00000000000E+00 -0.22147813665E+02  0.22147813665E+02  0.00000000000E+00 0.  1.
          4    1    1    2  501    0 -0.22448569519E+00  0.23914918637E+01 -0.20025734247E+02  0.20169275131E+02  0.00000000000E+00 0.  1.
         -4    1    1    2    0  501  0.22448569519E+00 -0.23914918637E+01 -0.13468019395E+01  0.27538160116E+01  0.00000000000E+00 0. -1.
<mgrwt>
<rscale>  0 0.24020048E+01</rscale>
<asrwt>0</asrwt>
<pdfrwt beam="1">0</pdfrwt>
<pdfrwt beam="2">0</pdfrwt>
<totfact> 0.79694456E+11</totfact>
</mgrwt>
</event>
<event>
 4    2  0.2130683E+006  0.6070365E+01  0.7546771E-02  0.2013434E+00
         22   -1    0    0    0    0  0.00000000000E+00  0.00000000000E+00  0.74879667738E+01  0.74879667738E+01  0.00000000000E+00 0. -1.
         22   -1    0    0    0    0 -0.00000000000E+00 -0.00000000000E+00 -0.96367597132E+01  0.96367597132E+01  0.00000000000E+00 0.  1.
          4    1    1    2  501    0  0.38535539290E+00 -0.60581208547E+01 -0.70639928207E+01  0.93139315887E+01  0.00000000000E+00 0.  1.
         -4    1    1    2    0  501 -0.38535539290E+00  0.60581208547E+01  0.49151998814E+01  0.78107948983E+01  0.00000000000E+00 0. -1.
<mgrwt>
<rscale>  0 0.60703647E+01</rscale>
<asrwt>0</asrwt>
<pdfrwt beam="1">0</pdfrwt>
<pdfrwt beam="2">0</pdfrwt>
<totfact> 0.15828153E+11</totfact>
</mgrwt>
</event>
<event>
 4    2  0.2130683E+006  0.3138352E+01  0.7546771E-02  0.2480188E+00
         22   -1    0    0    0    0  0.00000000000E+00  0.00000000000E+00  0.36310415630E+01  0.36310415630E+01  0.00000000000E+00 0.  1.
         22   -1    0    0    0    0 -0.00000000000E+00 -0.00000000000E+00 -0.35005453244E+01  0.35005453244E+01  0.00000000000E+00 0. -1.
          4    1    1    2  501    0  0.28317207610E+01  0.13530002767E+01 -0.16265945867E+01  0.35348355218E+01  0.00000000000E+00 0. -1.
         -4    1    1    2    0  501 -0.28317207610E+01 -0.13530002767E+01  0.17570908253E+01  0.35967513655E+01  0.00000000000E+00 0.  1.
<mgrwt>
<rscale>  0 0.31383518E+01</rscale>
<asrwt>0</asrwt>
<pdfrwt beam="1">0</pdfrwt>
<pdfrwt beam="2">0</pdfrwt>
<totfact> 0.12456665E+12</totfact>
</mgrwt>
</event>
<event>
 4    2  0.2130683E+006  0.5297847E+01  0.7546771E-02  0.2089044E+00
         22   -1    0    0    0    0  0.00000000000E+00  0.00000000000E+00  0.26887624565E+01  0.26887624565E+01  0.00000000000E+00 0. -1.
         22   -1    0    0    0    0 -0.00000000000E+00 -0.00000000000E+00 -0.30939146769E+02  0.30939146769E+02  0.00000000000E+00 0.  1.
          4    1    1    2  501    0  0.33475483438E+01  0.41062274197E+01 -0.27811848782E+02  0.28311942996E+02  0.00000000000E+00 0.  1.
         -4    1    1    2    0  501 -0.33475483438E+01 -0.41062274197E+01 -0.43853552986E+00  0.53159662289E+01  0.00000000000E+00 0. -1.
<mgrwt>
<rscale>  0 0.52978471E+01</rscale>
<asrwt>0</asrwt>
<pdfrwt beam="1">0</pdfrwt>
<pdfrwt beam="2">0</pdfrwt>
<totfact> 0.12491730E+11</totfact>
</mgrwt>
</event>
<event>
 4    2  0.2130683E+006  0.2129390E+01  0.7546771E-02  0.2898545E+00
         22   -1    0    0    0    0  0.00000000000E+00  0.00000000000E+00  0.12968693967E+01  0.12968693967E+01  0.00000000000E+00 0.  1.
         22   -1    0    0    0    0 -0.00000000000E+00 -0.00000000000E+00 -0.37366502122E+01  0.37366502122E+01  0.00000000000E+00 0. -1.
          4    1    1    2  501    0 -0.10858391217E+01  0.18317358232E+01 -0.18581277580E+01  0.28261177416E+01  0.00000000000E+00 0. -1.
         -4    1    1    2    0  501  0.10858391217E+01 -0.18317358232E+01 -0.58165305749E+00  0.22074018673E+01  0.00000000000E+00 0.  1.
<mgrwt>
<rscale>  0 0.21293902E+01</rscale>
<asrwt>0</asrwt>
<pdfrwt beam="1">0</pdfrwt>
<pdfrwt beam="2">0</pdfrwt>
<totfact> 0.38081507E+12</totfact>
</mgrwt>
</event>
<event>
 4    2  0.2130683E+006  0.2444396E+01  0.7546771E-02  0.2733563E+00
         22   -1    0    0    0    0  0.00000000000E+00  0.00000000000E+00  0.14061911311E+00  0.14061911311E+00  0.00000000000E+00 0. -1.
         22   -1    0    0    0    0 -0.00000000000E+00 -0.00000000000E+00 -0.43047543369E+02  0.43047543369E+02  0.00000000000E+00 0.  1.
          4    1    1    2  501    0  0.13050492222E+01  0.20668622239E+01 -0.23908382286E+02  0.24033015134E+02  0.00000000000E+00 0.  1.
         -4    1    1    2    0  501 -0.13050492222E+01 -0.20668622239E+01 -0.18998541970E+02  0.19155147348E+02  0.00000000000E+00 0. -1.
<mgrwt>
<rscale>  0 0.24443962E+01</rscale>
<asrwt>0</asrwt>
<pdfrwt beam="1">0</pdfrwt>
<pdfrwt beam="2">0</pdfrwt>
<totfact> 0.23198089E+12</totfact>
</mgrwt>
</event>
<event>
 4    2  0.2130683E+006  0.1832028E+02  0.7546771E-02  0.1560057E+00
         22   -1    0    0    0    0  0.00000000000E+00  0.00000000000E+00  0.42430668248E+02  0.42430668248E+02  0.00000000000E+00 0.  1.
         22   -1    0    0    0    0 -0.00000000000E+00 -0.00000000000E+00 -0.89178822614E+01  0.89178822614E+01  0.00000000000E+00 0. -1.
          4    1    1    2  501    0 -0.40689853699E+01 -0.17862696173E+02  0.81257747386E+01  0.20041476283E+02  0.00000000000E+00 0. -1.
         -4    1    1    2    0  501  0.40689853699E+01  0.17862696173E+02  0.25387011248E+02  0.31307074226E+02  0.00000000000E+00 0.  1.
<mgrwt>
<rscale>  0 0.18320277E+02</rscale>
<asrwt>0</asrwt>
<pdfrwt beam="1">0</pdfrwt>
<pdfrwt beam="2">0</pdfrwt>
<totfact> 0.20099983E+10</totfact>
</mgrwt>
</event>
<event>
 4    2  0.2130683E+006  0.2558931E+01  0.7546771E-02  0.2683106E+00
         22   -1    0    0    0    0  0.00000000000E+00  0.00000000000E+00  0.13024668274E+02  0.13024668274E+02  0.00000000000E+00 0.  1.
         22   -1    0    0    0    0 -0.00000000000E+00 -0.00000000000E+00 -0.84086331264E+00  0.84086331264E+00  0.00000000000E+00 0. -1.
          4    1    1    2  501    0  0.14890013908E+01  0.20811064101E+01  0.16957161321E+01  0.30697853724E+01  0.00000000000E+00 0. -1.
         -4    1    1    2    0  501 -0.14890013908E+01 -0.20811064101E+01  0.10488088830E+02  0.10795746215E+02  0.00000000000E+00 0.  1.
<mgrwt>
<rscale>  0 0.25589312E+01</rscale>
<asrwt>0</asrwt>
<pdfrwt beam="1">0</pdfrwt>
<pdfrwt beam="2">0</pdfrwt>
<totfact> 0.14017852E+12</totfact>
</mgrwt>
</event>
<event>
 4    2  0.2130683E+006  0.2199459E+01  0.7546771E-02  0.2857956E+00
         22   -1    0    0    0    0  0.00000000000E+00  0.00000000000E+00  0.25409243001E+02  0.25409243001E+02  0.00000000000E+00 0. -1.
         22   -1    0    0    0    0 -0.00000000000E+00 -0.00000000000E+00 -0.88328991403E+00  0.88328991403E+00  0.00000000000E+00 0.  1.
          4    1    1    2  501    0  0.24110396546E+00  0.21862037830E+01  0.61939372433E+00  0.22850091222E+01  0.00000000000E+00 0.  1.
         -4    1    1    2    0  501 -0.24110396546E+00 -0.21862037830E+01  0.23906559363E+02  0.24007523793E+02  0.00000000000E+00 0. -1.
<mgrwt>
<rscale>  0 0.21994586E+01</rscale>
<asrwt>0</asrwt>
<pdfrwt beam="1">0</pdfrwt>
<pdfrwt beam="2">0</pdfrwt>
<totfact> 0.57794949E+11</totfact>
</mgrwt>
</event>
<event>
 4    2  0.2130683E+006  0.4086029E+01  0.7546771E-02  0.2261145E+00
         22   -1    0    0    0    0  0.00000000000E+00  0.00000000000E+00  0.16175716322E+02  0.16175716322E+02  0.00000000000E+00 0.  1.
         22   -1    0    0    0    0 -0.00000000000E+00 -0.00000000000E+00 -0.25240534874E+01  0.25240534874E+01  0.00000000000E+00 0. -1.
          4    1    1    2  501    0 -0.33504715078E+01 -0.23387974494E+01 -0.36250753312E+00  0.41020780764E+01  0.00000000000E+00 0. -1.
         -4    1    1    2    0  501  0.33504715078E+01  0.23387974494E+01  0.14014170368E+02  0.14597691733E+02  0.00000000000E+00 0.  1.
<mgrwt>
<rscale>  0 0.40860290E+01</rscale>
<asrwt>0</asrwt>
<pdfrwt beam="1">0</pdfrwt>
<pdfrwt beam="2">0</pdfrwt>
<totfact> 0.30333913E+11</totfact>
</mgrwt>
</event>
<event>
 4    2  0.2130683E+006  0.2469948E+01  0.7546771E-02  0.2721929E+00
         22   -1    0    0    0    0  0.00000000000E+00  0.00000000000E+00  0.20073052311E+02  0.20073052311E+02  0.00000000000E+00 0.  1.
         22   -1    0    0    0    0 -0.00000000000E+00 -0.00000000000E+00 -0.45998592614E+00  0.45998592614E+00  0.00000000000E+00 0. -1.
          4    1    1    2  501    0  0.34804055536E+00  0.24453033404E+01  0.38265175526E+01  0.45544348974E+01  0.00000000000E+00 0. -1.
         -4    1    1    2    0  501 -0.34804055536E+00 -0.24453033404E+01  0.15786548832E+02  0.15978603340E+02  0.00000000000E+00 0.  1.
<mgrwt>
<rscale>  0 0.24699475E+01</rscale>
<asrwt>0</asrwt>
<pdfrwt beam="1">0</pdfrwt>
<pdfrwt beam="2">0</pdfrwt>
<totfact> 0.16276188E+12</totfact>
</mgrwt>
</event>
<event>
 4    2  0.2130683E+006  0.2280646E+01  0.7546771E-02  0.2813919E+00
         22   -1    0    0    0    0  0.00000000000E+00  0.00000000000E+00  0.29340264036E+01  0.29340264036E+01  0.00000000000E+00 0. -1.
         22   -1    0    0    0    0 -0.00000000000E+00 -0.00000000000E+00 -0.28959569802E+01  0.28959569802E+01  0.00000000000E+00 0.  1.
          4    1    1    2  501    0 -0.20319303921E+01 -0.10356667630E+01 -0.17963462417E+01  0.29031373689E+01  0.00000000000E+00 0.  1.
         -4    1    1    2    0  501  0.20319303921E+01  0.10356667630E+01  0.18344156651E+01  0.29268460149E+01  0.00000000000E+00 0. -1.
<mgrwt>
<rscale>  0 0.22806461E+01</rscale>
<asrwt>0</asrwt>
<pdfrwt beam="1">0</pdfrwt>
<pdfrwt beam="2">0</pdfrwt>
<totfact> 0.19956168E+12</totfact>
</mgrwt>
</event>
<event>
 4    2  0.2130683E+006  0.2499320E+01  0.7546771E-02  0.2708830E+00
         22   -1    0    0    0    0  0.00000000000E+00  0.00000000000E+00  0.75169411369E+00  0.75169411369E+00  0.00000000000E+00 0.  1.
         22   -1    0    0    0    0 -0.00000000000E+00 -0.00000000000E+00 -0.94076957892E+01  0.94076957892E+01  0.00000000000E+00 0. -1.
          4    1    1    2  501    0 -0.12111823461E+01 -0.21862382830E+01 -0.60631271611E+01  0.65580569895E+01  0.00000000000E+00 0. -1.
         -4    1    1    2    0  501  0.12111823461E+01  0.21862382830E+01 -0.25928745144E+01  0.36013329134E+01  0.00000000000E+00 0.  1.
<mgrwt>
<rscale>  0 0.24993200E+01</rscale>
<asrwt>0</asrwt>
<pdfrwt beam="1">0</pdfrwt>
<pdfrwt beam="2">0</pdfrwt>
<totfact> 0.23648392E+12</totfact>
</mgrwt>
</event>
<event>
 4    2  0.2130683E+006  0.2107882E+01  0.7546771E-02  0.2911526E+00
         22   -1    0    0    0    0  0.00000000000E+00  0.00000000000E+00  0.25230279827E+01  0.25230279827E+01  0.00000000000E+00 0.  1.
         22   -1    0    0    0    0 -0.00000000000E+00 -0.00000000000E+00 -0.23820915463E+01  0.23820915463E+01  0.00000000000E+00 0. -1.
          4    1    1    2  501    0 -0.33033019275E+00 -0.20818382109E+01  0.13227500968E+01  0.24885409764E+01  0.00000000000E+00 0.  1.
         -4    1    1    2    0  501  0.33033019275E+00  0.20818382109E+01 -0.11818136605E+01  0.24165785526E+01  0.00000000000E+00 0. -1.
<mgrwt>
<rscale>  0 0.21078824E+01</rscale>
<asrwt>0</asrwt>
<pdfrwt beam="1">0</pdfrwt>
<pdfrwt beam="2">0</pdfrwt>
<totfact> 0.29870399E+12</totfact>
</mgrwt>
</event>
<event>
 4    2  0.2130683E+006  0.2084760E+01  0.7546771E-02  0.2925771E+00
         22   -1    0    0    0    0  0.00000000000E+00  0.00000000000E+00  0.15967145029E+02  0.15967145029E+02  0.00000000000E+00 0. -1.
         22   -1    0    0    0    0 -0.00000000000E+00 -0.00000000000E+00 -0.52433731126E+00  0.52433731126E+00  0.00000000000E+00 0.  1.
          4    1    1    2  501    0  0.17863800229E+00 -0.20770924888E+01  0.20033978306E+01  0.28913366477E+01  0.00000000000E+00 0.  1.
         -4    1    1    2    0  501 -0.17863800229E+00  0.20770924888E+01  0.13439409887E+02  0.13600145692E+02  0.00000000000E+00 0. -1.
<mgrwt>
<rscale>  0 0.20847601E+01</rscale>
<asrwt>0</asrwt>
<pdfrwt beam="1">0</pdfrwt>
<pdfrwt beam="2">0</pdfrwt>
<totfact> 0.18646991E+12</totfact>
</mgrwt>
</event>
<event>
 4    2  0.2130683E+006  0.2440107E+01  0.7546771E-02  0.2735539E+00
         22   -1    0    0    0    0  0.00000000000E+00  0.00000000000E+00  0.28927535792E+01  0.28927535792E+01  0.00000000000E+00 0. -1.
         22   -1    0    0    0    0 -0.00000000000E+00 -0.00000000000E+00 -0.33650019156E+01  0.33650019156E+01  0.00000000000E+00 0.  1.
          4    1    1    2  501    0  0.20014889379E+01  0.13957668011E+01 -0.21859060260E+01  0.32760201596E+01  0.00000000000E+00 0.  1.
         -4    1    1    2    0  501 -0.20014889379E+01 -0.13957668011E+01  0.17136576896E+01  0.29817353351E+01  0.00000000000E+00 0. -1.
<mgrwt>
<rscale>  0 0.24401072E+01</rscale>
<asrwt>0</asrwt>
<pdfrwt beam="1">0</pdfrwt>
<pdfrwt beam="2">0</pdfrwt>
<totfact> 0.17022970E+12</totfact>
</mgrwt>
</event>
<event>
 4    2  0.2130683E+006  0.3099203E+01  0.7546771E-02  0.2491731E+00
         22   -1    0    0    0    0  0.00000000000E+00  0.00000000000E+00  0.28946382019E+01  0.28946382019E+01  0.00000000000E+00 0. -1.
         22   -1    0    0    0    0 -0.00000000000E+00 -0.00000000000E+00 -0.45565582605E+01  0.45565582605E+01  0.00000000000E+00 0.  1.
          4    1    1    2  501    0 -0.26096726873E+01 -0.16717258712E+01 -0.27731711678E+01  0.41587903588E+01  0.00000000000E+00 0.  1.
         -4    1    1    2    0  501  0.26096726873E+01  0.16717258712E+01  0.11112511091E+01  0.32924061035E+01  0.00000000000E+00 0. -1.
<mgrwt>
<rscale>  0 0.30992029E+01</rscale>
<asrwt>0</asrwt>
<pdfrwt beam="1">0</pdfrwt>
<pdfrwt beam="2">0</pdfrwt>
<totfact> 0.11909102E+12</totfact>
</mgrwt>
</event>
<event>
 4    2  0.2130683E+006  0.2667312E+01  0.7546771E-02  0.2639068E+00
         22   -1    0    0    0    0  0.00000000000E+00  0.00000000000E+00  0.40306557955E+01  0.40306557955E+01  0.00000000000E+00 0.  1.
         22   -1    0    0    0    0 -0.00000000000E+00 -0.00000000000E+00 -0.20031321320E+01  0.20031321320E+01  0.00000000000E+00 0. -1.
          4    1    1    2  501    0  0.12060134794E+01  0.23790938249E+01 -0.26188902751E-01  0.26674410581E+01  0.00000000000E+00 0. -1.
         -4    1    1    2    0  501 -0.12060134794E+01 -0.23790938249E+01  0.20537125663E+01  0.33663468694E+01  0.00000000000E+00 0.  1.
<mgrwt>
<rscale>  0 0.26673125E+01</rscale>
<asrwt>0</asrwt>
<pdfrwt beam="1">0</pdfrwt>
<pdfrwt beam="2">0</pdfrwt>
<totfact> 0.21110064E+12</totfact>
</mgrwt>
</event>
<event>
 4    2  0.2130683E+006  0.2551380E+01  0.7546771E-02  0.2686303E+00
         22   -1    0    0    0    0  0.00000000000E+00  0.00000000000E+00  0.38199578845E+00  0.38199578845E+00  0.00000000000E+00 0.  1.
         22   -1    0    0    0    0 -0.00000000000E+00 -0.00000000000E+00 -0.32543540290E+02  0.32543540290E+02  0.00000000000E+00 0. -1.
          4    1    1    2  501    0  0.14948779639E+01 -0.20675782681E+01 -0.27443268065E+02  0.27561612836E+02  0.00000000000E+00 0. -1.
         -4    1    1    2    0  501 -0.14948779639E+01  0.20675782681E+01 -0.47182764365E+01  0.53639232426E+01  0.00000000000E+00 0.  1.
<mgrwt>
<rscale>  0 0.25513800E+01</rscale>
<asrwt>0</asrwt>
<pdfrwt beam="1">0</pdfrwt>
<pdfrwt beam="2">0</pdfrwt>
<totfact> 0.10898016E+12</totfact>
</mgrwt>
</event>
<event>
 4    2  0.2130683E+006  0.2315777E+01  0.7546771E-02  0.2795776E+00
         22   -1    0    0    0    0  0.00000000000E+00  0.00000000000E+00  0.42383099517E+00  0.42383099517E+00  0.00000000000E+00 0. -1.
         22   -1    0    0    0    0 -0.00000000000E+00 -0.00000000000E+00 -0.12744311325E+02  0.12744311325E+02  0.00000000000E+00 0.  1.
          4    1    1    2  501    0  0.16779484400E+01 -0.15960304994E+01 -0.67168987558E+01  0.71048964256E+01  0.00000000000E+00 0.  1.
         -4    1    1    2    0  501 -0.16779484400E+01  0.15960304994E+01 -0.56035815743E+01  0.60632458949E+01  0.00000000000E+00 0. -1.
<mgrwt>
<rscale>  0 0.23157773E+01</rscale>
<asrwt>0</asrwt>
<pdfrwt beam="1">0</pdfrwt>
<pdfrwt beam="2">0</pdfrwt>
<totfact> 0.31270964E+12</totfact>
</mgrwt>
</event>
<event>
 4    2  0.2130683E+006  0.2514545E+01  0.7546771E-02  0.2702152E+00
         22   -1    0    0    0    0  0.00000000000E+00  0.00000000000E+00  0.15112903912E+00  0.15112903912E+00  0.00000000000E+00 0. -1.
         22   -1    0    0    0    0 -0.00000000000E+00 -0.00000000000E+00 -0.46250426848E+02  0.46250426848E+02  0.00000000000E+00 0.  1.
          4    1    1    2  501    0  0.12469438805E+01 -0.21835909737E+01 -0.30215748402E+02  0.30320197725E+02  0.00000000000E+00 0.  1.
         -4    1    1    2    0  501 -0.12469438805E+01  0.21835909737E+01 -0.15883549407E+02  0.16081358162E+02  0.00000000000E+00 0. -1.
<mgrwt>
<rscale>  0 0.25145454E+01</rscale>
<asrwt>0</asrwt>
<pdfrwt beam="1">0</pdfrwt>
<pdfrwt beam="2">0</pdfrwt>
<totfact> 0.19493999E+12</totfact>
</mgrwt>
</event>
<event>
 4    2  0.2130683E+006  0.3695569E+01  0.7546771E-02  0.2339560E+00
         22   -1    0    0    0    0  0.00000000000E+00  0.00000000000E+00  0.61135041684E+01  0.61135041684E+01  0.00000000000E+00 0. -1.
         22   -1    0    0    0    0 -0.00000000000E+00 -0.00000000000E+00 -0.92636356829E+01  0.92636356829E+01  0.00000000000E+00 0.  1.
          4    1    1    2  501    0 -0.29542547856E+01 -0.22202716223E+01 -0.82727237407E+01  0.90606393541E+01  0.00000000000E+00 0.  1.
         -4    1    1    2    0  501  0.29542547856E+01  0.22202716223E+01  0.51225922262E+01  0.63165004972E+01  0.00000000000E+00 0. -1.
<mgrwt>
<rscale>  0 0.36955686E+01</rscale>
<asrwt>0</asrwt>
<pdfrwt beam="1">0</pdfrwt>
<pdfrwt beam="2">0</pdfrwt>
<totfact> 0.21153845E+11</totfact>
</mgrwt>
</event>
<event>
 4    2  0.2130683E+006  0.2617068E+01  0.7546771E-02  0.2659065E+00
         22   -1    0    0    0    0  0.00000000000E+00  0.00000000000E+00  0.26205447796E+01  0.26205447796E+01  0.00000000000E+00 0. -1.
         22   -1    0    0    0    0 -0.00000000000E+00 -0.00000000000E+00 -0.29107956473E+01  0.29107956473E+01  0.00000000000E+00 0.  1.
          4    1    1    2  501    0 -0.15368227999E+01  0.21183064399E+01 -0.10288529173E+01  0.28120428192E+01  0.00000000000E+00 0.  1.
         -4    1    1    2    0  501  0.15368227999E+01 -0.21183064399E+01  0.73860204963E+00  0.27192976077E+01  0.00000000000E+00 0. -1.
<mgrwt>
<rscale>  0 0.26170683E+01</rscale>
<asrwt>0</asrwt>
<pdfrwt beam="1">0</pdfrwt>
<pdfrwt beam="2">0</pdfrwt>
<totfact> 0.22631777E+12</totfact>
</mgrwt>
</event>
<event>
 4    2  0.2130683E+006  0.3934015E+01  0.7546771E-02  0.2290088E+00
         22   -1    0    0    0    0  0.00000000000E+00  0.00000000000E+00  0.57659063994E+01  0.57659063994E+01  0.00000000000E+00 0.  1.
         22   -1    0    0    0    0 -0.00000000000E+00 -0.00000000000E+00 -0.38315071776E+01  0.38315071776E+01  0.00000000000E+00 0. -1.
          4    1    1    2  501    0 -0.35412855144E+01 -0.17134091697E+01  0.35931798560E+01  0.53279841924E+01  0.00000000000E+00 0.  1.
         -4    1    1    2    0  501  0.35412855144E+01  0.17134091697E+01 -0.16587806343E+01  0.42694293846E+01  0.00000000000E+00 0. -1.
<mgrwt>
<rscale>  0 0.39340150E+01</rscale>
<asrwt>0</asrwt>
<pdfrwt beam="1">0</pdfrwt>
<pdfrwt beam="2">0</pdfrwt>
<totfact> 0.64881997E+11</totfact>
</mgrwt>
</event>
<event>
 4    2  0.2130683E+006  0.3024345E+01  0.7546771E-02  0.2514542E+00
         22   -1    0    0    0    0  0.00000000000E+00  0.00000000000E+00  0.35411603441E+02  0.35411603441E+02  0.00000000000E+00 0. -1.
         22   -1    0    0    0    0 -0.00000000000E+00 -0.00000000000E+00 -0.26672744991E+00  0.26672744991E+00  0.00000000000E+00 0.  1.
          4    1    1    2  501    0 -0.22744320039E+01  0.19933943781E+01  0.14400668776E+02  0.14714819852E+02  0.00000000000E+00 0.  1.
         -4    1    1    2    0  501  0.22744320039E+01 -0.19933943781E+01  0.20744207216E+02  0.20963511039E+02  0.00000000000E+00 0. -1.
<mgrwt>
<rscale>  0 0.30243449E+01</rscale>
<asrwt>0</asrwt>
<pdfrwt beam="1">0</pdfrwt>
<pdfrwt beam="2">0</pdfrwt>
<totfact> 0.14632107E+12</totfact>
</mgrwt>
</event>
<event>
 4    2  0.2130683E+006  0.2397485E+01  0.7546771E-02  0.2755527E+00
         22   -1    0    0    0    0  0.00000000000E+00  0.00000000000E+00  0.71566743131E+00  0.71566743131E+00  0.00000000000E+00 0.  1.
         22   -1    0    0    0    0 -0.00000000000E+00 -0.00000000000E+00 -0.83041657749E+01  0.83041657749E+01  0.00000000000E+00 0. -1.
          4    1    1    2  501    0 -0.12909843758E+01 -0.20202211244E+01 -0.29771420859E+01  0.38224742052E+01  0.00000000000E+00 0.  1.
         -4    1    1    2    0  501  0.12909843758E+01  0.20202211244E+01 -0.46113562577E+01  0.51973590010E+01  0.00000000000E+00 0. -1.
<mgrwt>
<rscale>  0 0.23974849E+01</rscale>
<asrwt>0</asrwt>
<pdfrwt beam="1">0</pdfrwt>
<pdfrwt beam="2">0</pdfrwt>
<totfact> 0.29063885E+12</totfact>
</mgrwt>
</event>
<event>
 4    2  0.2130683E+006  0.2320527E+01  0.7546771E-02  0.2793363E+00
         22   -1    0    0    0    0  0.00000000000E+00  0.00000000000E+00  0.15587743109E+02  0.15587743109E+02  0.00000000000E+00 0.  1.
         22   -1    0    0    0    0 -0.00000000000E+00 -0.00000000000E+00 -0.48347006505E+00  0.48347006505E+00  0.00000000000E+00 0. -1.
          4    1    1    2  501    0 -0.42681551598E+00 -0.22809370248E+01  0.32587598109E+01  0.40005450504E+01  0.00000000000E+00 0. -1.
         -4    1    1    2    0  501  0.42681551598E+00  0.22809370248E+01  0.11845513233E+02  0.12070668124E+02  0.00000000000E+00 0.  1.
<mgrwt>
<rscale>  0 0.23205269E+01</rscale>
<asrwt>0</asrwt>
<pdfrwt beam="1">0</pdfrwt>
<pdfrwt beam="2">0</pdfrwt>
<totfact> 0.21052936E+12</totfact>
</mgrwt>
</event>
<event>
 4    2  0.2130683E+006  0.3400046E+01  0.7546771E-02  0.2409114E+00
         22   -1    0    0    0    0  0.00000000000E+00  0.00000000000E+00  0.14527277372E+02  0.14527277372E+02  0.00000000000E+00 0. -1.
         22   -1    0    0    0    0 -0.00000000000E+00 -0.00000000000E+00 -0.11552773027E+01  0.11552773027E+01  0.00000000000E+00 0.  1.
          4    1    1    2  501    0  0.12010917152E+00  0.33979239675E+01  0.23117866569E+01  0.41115290403E+01  0.00000000000E+00 0.  1.
         -4    1    1    2    0  501 -0.12010917152E+00 -0.33979239675E+01  0.11060213413E+02  0.11571025635E+02  0.00000000000E+00 0. -1.
<mgrwt>
<rscale>  0 0.34000461E+01</rscale>
<asrwt>0</asrwt>
<pdfrwt beam="1">0</pdfrwt>
<pdfrwt beam="2">0</pdfrwt>
<totfact> 0.85318662E+11</totfact>
</mgrwt>
</event>
<event>
 4    2  0.2130683E+006  0.2050281E+01  0.7546771E-02  0.2947591E+00
         22   -1    0    0    0    0  0.00000000000E+00  0.00000000000E+00  0.13582804005E+02  0.13582804005E+02  0.00000000000E+00 0.  1.
         22   -1    0    0    0    0 -0.00000000000E+00 -0.00000000000E+00 -0.58391676657E+00  0.58391676657E+00  0.00000000000E+00 0. -1.
          4    1    1    2  501    0 -0.16741199542E+01 -0.11836280485E+01  0.16434032737E+01  0.26276276940E+01  0.00000000000E+00 0. -1.
         -4    1    1    2    0  501  0.16741199542E+01  0.11836280485E+01  0.11355483965E+02  0.11539093078E+02  0.00000000000E+00 0.  1.
<mgrwt>
<rscale>  0 0.20502812E+01</rscale>
<asrwt>0</asrwt>
<pdfrwt beam="1">0</pdfrwt>
<pdfrwt beam="2">0</pdfrwt>
<totfact> 0.20142436E+12</totfact>
</mgrwt>
</event>
<event>
 4    2  0.2130683E+006  0.2118903E+01  0.7546771E-02  0.2904843E+00
         22   -1    0    0    0    0  0.00000000000E+00  0.00000000000E+00  0.15994452734E+01  0.15994452734E+01  0.00000000000E+00 0.  1.
         22   -1    0    0    0    0 -0.00000000000E+00 -0.00000000000E+00 -0.28379618444E+01  0.28379618444E+01  0.00000000000E+00 0. -1.
          4    1    1    2  501    0  0.11149548981E+01  0.18018391517E+01 -0.85075492260E+00  0.22833161612E+01  0.00000000000E+00 0. -1.
         -4    1    1    2    0  501 -0.11149548981E+01 -0.18018391517E+01 -0.38776164840E+00  0.21540909566E+01  0.00000000000E+00 0.  1.
<mgrwt>
<rscale>  0 0.21189027E+01</rscale>
<asrwt>0</asrwt>
<pdfrwt beam="1">0</pdfrwt>
<pdfrwt beam="2">0</pdfrwt>
<totfact> 0.41291415E+12</totfact>
</mgrwt>
</event>
<event>
 4    2  0.2130683E+006  0.2289145E+01  0.7546771E-02  0.2809481E+00
         22   -1    0    0    0    0  0.00000000000E+00  0.00000000000E+00  0.28422279285E+01  0.28422279285E+01  0.00000000000E+00 0. -1.
         22   -1    0    0    0    0 -0.00000000000E+00 -0.00000000000E+00 -0.21753925655E+01  0.21753925655E+01  0.00000000000E+00 0.  1.
          4    1    1    2  501    0 -0.13027216391E+01 -0.18823131321E+01 -0.64623830662E+00  0.23786152159E+01  0.00000000000E+00 0.  1.
         -4    1    1    2    0  501  0.13027216391E+01  0.18823131321E+01  0.13130736697E+01  0.26390052782E+01  0.00000000000E+00 0. -1.
<mgrwt>
<rscale>  0 0.22891453E+01</rscale>
<asrwt>0</asrwt>
<pdfrwt beam="1">0</pdfrwt>
<pdfrwt beam="2">0</pdfrwt>
<totfact> 0.28889379E+12</totfact>
</mgrwt>
</event>
<event>
 4    2  0.2130683E+006  0.2394149E+01  0.7546771E-02  0.2757119E+00
         22   -1    0    0    0    0  0.00000000000E+00  0.00000000000E+00  0.61806661934E+01  0.61806661934E+01  0.00000000000E+00 0. -1.
         22   -1    0    0    0    0 -0.00000000000E+00 -0.00000000000E+00 -0.92775176714E+00  0.92775176714E+00  0.00000000000E+00 0.  1.
          4    1    1    2  501    0  0.96767234257E+00  0.21898761752E+01  0.25572112440E+01  0.35030382201E+01  0.00000000000E+00 0.  1.
         -4    1    1    2    0  501 -0.96767234257E+00 -0.21898761752E+01  0.26957031823E+01  0.36053797404E+01  0.00000000000E+00 0. -1.
<mgrwt>
<rscale>  0 0.23941486E+01</rscale>
<asrwt>0</asrwt>
<pdfrwt beam="1">0</pdfrwt>
<pdfrwt beam="2">0</pdfrwt>
<totfact> 0.30805075E+12</totfact>
</mgrwt>
</event>
<event>
 4    2  0.2130683E+006  0.2920366E+01  0.7546771E-02  0.2547960E+00
         22   -1    0    0    0    0  0.00000000000E+00  0.00000000000E+00  0.50160697687E+01  0.50160697687E+01  0.00000000000E+00 0.  1.
         22   -1    0    0    0    0 -0.00000000000E+00 -0.00000000000E+00 -0.23717887886E+01  0.23717887886E+01  0.00000000000E+00 0. -1.
          4    1    1    2  501    0 -0.19197988868E+01  0.22006610315E+01 -0.64342914885E+00  0.29904076329E+01  0.00000000000E+00 0. -1.
         -4    1    1    2    0  501  0.19197988868E+01 -0.22006610315E+01  0.32877101289E+01  0.43974509244E+01  0.00000000000E+00 0.  1.
<mgrwt>
<rscale>  0 0.29203659E+01</rscale>
<asrwt>0</asrwt>
<pdfrwt beam="1">0</pdfrwt>
<pdfrwt beam="2">0</pdfrwt>
<totfact> 0.13405497E+12</totfact>
</mgrwt>
</event>
<event>
 4    2  0.2130683E+006  0.3047418E+01  0.7546771E-02  0.2507405E+00
         22   -1    0    0    0    0  0.00000000000E+00  0.00000000000E+00  0.64285103707E+01  0.64285103707E+01  0.00000000000E+00 0. -1.
         22   -1    0    0    0    0 -0.00000000000E+00 -0.00000000000E+00 -0.17463893857E+01  0.17463893857E+01  0.00000000000E+00 0.  1.
          4    1    1    2  501    0  0.18150330507E+01  0.24479404107E+01  0.64195947687E+00  0.31143007561E+01  0.00000000000E+00 0.  1.
         -4    1    1    2    0  501 -0.18150330507E+01 -0.24479404107E+01  0.40401615081E+01  0.50605990003E+01  0.00000000000E+00 0. -1.
<mgrwt>
<rscale>  0 0.30474181E+01</rscale>
<asrwt>0</asrwt>
<pdfrwt beam="1">0</pdfrwt>
<pdfrwt beam="2">0</pdfrwt>
<totfact> 0.14228541E+12</totfact>
</mgrwt>
</event>
<event>
 4    2  0.2130683E+006  0.2112807E+01  0.7546771E-02  0.2908531E+00
         22   -1    0    0    0    0  0.00000000000E+00  0.00000000000E+00  0.10605615861E+01  0.10605615861E+01  0.00000000000E+00 0. -1.
         22   -1    0    0    0    0 -0.00000000000E+00 -0.00000000000E+00 -0.43075284994E+01  0.43075284994E+01  0.00000000000E+00 0.  1.
          4    1    1    2  501    0  0.12456865308E+01 -0.17065221434E+01 -0.20293233319E+01  0.29295231600E+01  0.00000000000E+00 0.  1.
         -4    1    1    2    0  501 -0.12456865308E+01  0.17065221434E+01 -0.12176435813E+01  0.24385669255E+01  0.00000000000E+00 0. -1.
<mgrwt>
<rscale>  0 0.21128068E+01</rscale>
<asrwt>0</asrwt>
<pdfrwt beam="1">0</pdfrwt>
<pdfrwt beam="2">0</pdfrwt>
<totfact> 0.40559907E+12</totfact>
</mgrwt>
</event>
<event>
 4    2  0.2130683E+006  0.2721295E+01  0.7546771E-02  0.2618339E+00
         22   -1    0    0    0    0  0.00000000000E+00  0.00000000000E+00  0.56723332823E+01  0.56723332823E+01  0.00000000000E+00 0.  1.
         22   -1    0    0    0    0 -0.00000000000E+00 -0.00000000000E+00 -0.33868680553E+01  0.33868680553E+01  0.00000000000E+00 0. -1.
          4    1    1    2  501    0  0.15463398808E+01  0.22392581465E+01 -0.24081090126E+01  0.36337904577E+01  0.00000000000E+00 0. -1.
         -4    1    1    2    0  501 -0.15463398808E+01 -0.22392581465E+01  0.46935742396E+01  0.54254108800E+01  0.00000000000E+00 0.  1.
<mgrwt>
<rscale>  0 0.27212946E+01</rscale>
<asrwt>0</asrwt>
<pdfrwt beam="1">0</pdfrwt>
<pdfrwt beam="2">0</pdfrwt>
<totfact> 0.76459543E+11</totfact>
</mgrwt>
</event>
<event>
 4    2  0.2130683E+006  0.2022787E+01  0.7546771E-02  0.2965512E+00
         22   -1    0    0    0    0  0.00000000000E+00  0.00000000000E+00  0.95135663009E+00  0.95135663009E+00  0.00000000000E+00 0. -1.
         22   -1    0    0    0    0 -0.00000000000E+00 -0.00000000000E+00 -0.63938904661E+01  0.63938904661E+01  0.00000000000E+00 0.  1.
          4    1    1    2  501    0  0.19132666507E+01  0.65656420364E+00 -0.48225281596E+01  0.52295739482E+01  0.00000000000E+00 0.  1.
         -4    1    1    2    0  501 -0.19132666507E+01 -0.65656420364E+00 -0.62000567639E+00  0.21156731479E+01  0.00000000000E+00 0. -1.
<mgrwt>
<rscale>  0 0.20227866E+01</rscale>
<asrwt>0</asrwt>
<pdfrwt beam="1">0</pdfrwt>
<pdfrwt beam="2">0</pdfrwt>
<totfact> 0.28746294E+12</totfact>
</mgrwt>
</event>
<event>
 4    2  0.2130683E+006  0.3032320E+01  0.7546771E-02  0.2512064E+00
         22   -1    0    0    0    0  0.00000000000E+00  0.00000000000E+00  0.14899731005E+02  0.14899731005E+02  0.00000000000E+00 0.  1.
         22   -1    0    0    0    0 -0.00000000000E+00 -0.00000000000E+00 -0.64462715886E+00  0.64462715886E+00  0.00000000000E+00 0. -1.
          4    1    1    2  501    0  0.28004889383E+01 -0.11628520833E+01  0.55221288374E+01  0.62999103294E+01  0.00000000000E+00 0. -1.
         -4    1    1    2    0  501 -0.28004889383E+01  0.11628520833E+01  0.87329750088E+01  0.92444478346E+01  0.00000000000E+00 0.  1.
<mgrwt>
<rscale>  0 0.30323198E+01</rscale>
<asrwt>0</asrwt>
<pdfrwt beam="1">0</pdfrwt>
<pdfrwt beam="2">0</pdfrwt>
<totfact> 0.16075055E+12</totfact>
</mgrwt>
</event>
<event>
 4    2  0.2130683E+006  0.5093082E+01  0.7546771E-02  0.2112054E+00
         22   -1    0    0    0    0  0.00000000000E+00  0.00000000000E+00  0.16165456975E+02  0.16165456975E+02  0.00000000000E+00 0. -1.
         22   -1    0    0    0    0 -0.00000000000E+00 -0.00000000000E+00 -0.16640253224E+01  0.16640253224E+01  0.00000000000E+00 0.  1.
          4    1    1    2  501    0 -0.51828106647E+00  0.50666429832E+01  0.89350390547E+01  0.10284668653E+02  0.00000000000E+00 0. -1.
         -4    1    1    2    0  501  0.51828106647E+00 -0.50666429832E+01  0.55663925983E+01  0.75448136453E+01  0.00000000000E+00 0.  1.
<mgrwt>
<rscale>  0 0.50930822E+01</rscale>
<asrwt>0</asrwt>
<pdfrwt beam="1">0</pdfrwt>
<pdfrwt beam="2">0</pdfrwt>
<totfact> 0.49183200E+11</totfact>
</mgrwt>
</event>
<event>
 4    2  0.2130683E+006  0.2106995E+01  0.7546771E-02  0.2912068E+00
         22   -1    0    0    0    0  0.00000000000E+00  0.00000000000E+00  0.23259130497E+02  0.23259130497E+02  0.00000000000E+00 0. -1.
         22   -1    0    0    0    0 -0.00000000000E+00 -0.00000000000E+00 -0.20849068355E+00  0.20849068355E+00  0.00000000000E+00 0.  1.
          4    1    1    2  501    0 -0.20379814251E+01 -0.53484375756E+00  0.81139368413E+01  0.83830422401E+01  0.00000000000E+00 0.  1.
         -4    1    1    2    0  501  0.20379814251E+01  0.53484375756E+00  0.14936702972E+02  0.15084578941E+02  0.00000000000E+00 0. -1.
<mgrwt>
<rscale>  0 0.21069946E+01</rscale>
<asrwt>0</asrwt>
<pdfrwt beam="1">0</pdfrwt>
<pdfrwt beam="2">0</pdfrwt>
<totfact> 0.32881284E+12</totfact>
</mgrwt>
</event>
<event>
 4    2  0.2130683E+006  0.2150903E+01  0.7546771E-02  0.2885812E+00
         22   -1    0    0    0    0  0.00000000000E+00  0.00000000000E+00  0.73523223107E+00  0.73523223107E+00  0.00000000000E+00 0. -1.
         22   -1    0    0    0    0 -0.00000000000E+00 -0.00000000000E+00 -0.63113488061E+01  0.63113488061E+01  0.00000000000E+00 0.  1.
          4    1    1    2  501    0  0.74372938495E+00  0.20182296953E+01 -0.25950683396E+01  0.33705732729E+01  0.00000000000E+00 0. -1.
         -4    1    1    2    0  501 -0.74372938495E+00 -0.20182296953E+01 -0.29810482354E+01  0.36760077643E+01  0.00000000000E+00 0.  1.
<mgrwt>
<rscale>  0 0.21509032E+01</rscale>
<asrwt>0</asrwt>
<pdfrwt beam="1">0</pdfrwt>
<pdfrwt beam="2">0</pdfrwt>
<totfact> 0.39151032E+12</totfact>
</mgrwt>
</event>
<event>
 4    2  0.2130683E+006  0.2482918E+01  0.7546771E-02  0.2716109E+00
         22   -1    0    0    0    0  0.00000000000E+00  0.00000000000E+00  0.30035971496E+01  0.30035971496E+01  0.00000000000E+00 0.  1.
         22   -1    0    0    0    0 -0.00000000000E+00 -0.00000000000E+00 -0.21688210929E+01  0.21688210929E+01  0.00000000000E+00 0. -1.
          4    1    1    2  501    0  0.96702399255E+00  0.22868634108E+01 -0.18155178037E+00  0.24895462861E+01  0.00000000000E+00 0. -1.
         -4    1    1    2    0  501 -0.96702399255E+00 -0.22868634108E+01  0.10163278371E+01  0.26828719564E+01  0.00000000000E+00 0.  1.
<mgrwt>
<rscale>  0 0.24829176E+01</rscale>
<asrwt>0</asrwt>
<pdfrwt beam="1">0</pdfrwt>
<pdfrwt beam="2">0</pdfrwt>
<totfact> 0.27181433E+12</totfact>
</mgrwt>
</event>
<event>
 4    2  0.2130683E+006  0.2648175E+01  0.7546771E-02  0.2646602E+00
         22   -1    0    0    0    0  0.00000000000E+00  0.00000000000E+00  0.10706141555E+01  0.10706141555E+01  0.00000000000E+00 0.  1.
         22   -1    0    0    0    0 -0.00000000000E+00 -0.00000000000E+00 -0.95383099951E+01  0.95383099951E+01  0.00000000000E+00 0. -1.
          4    1    1    2  501    0 -0.21816258438E+01 -0.15011126289E+01 -0.72027615846E+01  0.76741517376E+01  0.00000000000E+00 0. -1.
         -4    1    1    2    0  501  0.21816258438E+01  0.15011126289E+01 -0.12649342549E+01  0.29347724130E+01  0.00000000000E+00 0.  1.
<mgrwt>
<rscale>  0 0.26481749E+01</rscale>
<asrwt>0</asrwt>
<pdfrwt beam="1">0</pdfrwt>
<pdfrwt beam="2">0</pdfrwt>
<totfact> 0.15541762E+12</totfact>
</mgrwt>
</event>
<event>
 4    2  0.2130683E+006  0.2118612E+01  0.7546771E-02  0.2905019E+00
         22   -1    0    0    0    0  0.00000000000E+00  0.00000000000E+00  0.11631787566E+01  0.11631787566E+01  0.00000000000E+00 0.  1.
         22   -1    0    0    0    0 -0.00000000000E+00 -0.00000000000E+00 -0.47394891902E+01  0.47394891902E+01  0.00000000000E+00 0. -1.
          4    1    1    2  501    0 -0.18644748493E+01  0.10061064719E+01 -0.30603538073E+01  0.37221340817E+01  0.00000000000E+00 0. -1.
         -4    1    1    2    0  501  0.18644748493E+01 -0.10061064719E+01 -0.51595662626E+00  0.21805338651E+01  0.00000000000E+00 0.  1.
<mgrwt>
<rscale>  0 0.21186120E+01</rscale>
<asrwt>0</asrwt>
<pdfrwt beam="1">0</pdfrwt>
<pdfrwt beam="2">0</pdfrwt>
<totfact> 0.32599120E+12</totfact>
</mgrwt>
</event>
<event>
 4    2  0.2130683E+006  0.2049140E+01  0.7546771E-02  0.2948326E+00
         22   -1    0    0    0    0  0.00000000000E+00  0.00000000000E+00  0.37944926213E+02  0.37944926213E+02  0.00000000000E+00 0. -1.
         22   -1    0    0    0    0 -0.00000000000E+00 -0.00000000000E+00 -0.11598080314E+00  0.11598080314E+00  0.00000000000E+00 0.  1.
          4    1    1    2  501    0  0.19501056439E+01  0.62933558160E+00  0.22990674621E+02  0.23081813075E+02  0.00000000000E+00 0. -1.
         -4    1    1    2    0  501 -0.19501056439E+01 -0.62933558160E+00  0.14838270789E+02  0.14979093941E+02  0.00000000000E+00 0.  1.
<mgrwt>
<rscale>  0 0.20491401E+01</rscale>
<asrwt>0</asrwt>
<pdfrwt beam="1">0</pdfrwt>
<pdfrwt beam="2">0</pdfrwt>
<totfact> 0.33839993E+12</totfact>
</mgrwt>
</event>
<event>
 4    2  0.2130683E+006  0.3354576E+01  0.7546771E-02  0.2420761E+00
         22   -1    0    0    0    0  0.00000000000E+00  0.00000000000E+00  0.46795757248E+01  0.46795757248E+01  0.00000000000E+00 0. -1.
         22   -1    0    0    0    0 -0.00000000000E+00 -0.00000000000E+00 -0.39351840981E+01  0.39351840981E+01  0.00000000000E+00 0.  1.
          4    1    1    2  501    0  0.97182774161E+00  0.32107207534E+01 -0.23140080066E+01  0.40752680857E+01  0.00000000000E+00 0.  1.
         -4    1    1    2    0  501 -0.97182774161E+00 -0.32107207534E+01  0.30583996333E+01  0.45394917372E+01  0.00000000000E+00 0. -1.
<mgrwt>
<rscale>  0 0.33545755E+01</rscale>
<asrwt>0</asrwt>
<pdfrwt beam="1">0</pdfrwt>
<pdfrwt beam="2">0</pdfrwt>
<totfact> 0.80528869E+11</totfact>
</mgrwt>
</event>
<event>
 4    2  0.2130683E+006  0.2108204E+01  0.7546771E-02  0.2911330E+00
         22   -1    0    0    0    0  0.00000000000E+00  0.00000000000E+00  0.35356017214E+00  0.35356017214E+00  0.00000000000E+00 0. -1.
         22   -1    0    0    0    0 -0.00000000000E+00 -0.00000000000E+00 -0.13734878456E+02  0.13734878456E+02  0.00000000000E+00 0.  1.
          4    1    1    2  501    0  0.14099777283E+01  0.15673185541E+01 -0.87414276155E+01  0.89920565724E+01  0.00000000000E+00 0.  1.
         -4    1    1    2    0  501 -0.14099777283E+01 -0.15673185541E+01 -0.46398906688E+01  0.50963820561E+01  0.00000000000E+00 0. -1.
<mgrwt>
<rscale>  0 0.21082041E+01</rscale>
<asrwt>0</asrwt>
<pdfrwt beam="1">0</pdfrwt>
<pdfrwt beam="2">0</pdfrwt>
<totfact> 0.34987019E+12</totfact>
</mgrwt>
</event>
<event>
 4    2  0.2130683E+006  0.2284036E+01  0.7546771E-02  0.2812145E+00
         22   -1    0    0    0    0  0.00000000000E+00  0.00000000000E+00  0.18699865215E+00  0.18699865215E+00  0.00000000000E+00 0.  1.
         22   -1    0    0    0    0 -0.00000000000E+00 -0.00000000000E+00 -0.37165954341E+02  0.37165954341E+02  0.00000000000E+00 0. -1.
          4    1    1    2  501    0 -0.17940307137E+01  0.14136026398E+01 -0.27816070000E+02  0.27909685933E+02  0.00000000000E+00 0. -1.
         -4    1    1    2    0  501  0.17940307137E+01 -0.14136026398E+01 -0.91628856884E+01  0.94432670599E+01  0.00000000000E+00 0.  1.
<mgrwt>
<rscale>  0 0.22840356E+01</rscale>
<asrwt>0</asrwt>
<pdfrwt beam="1">0</pdfrwt>
<pdfrwt beam="2">0</pdfrwt>
<totfact> 0.20440367E+12</totfact>
</mgrwt>
</event>
<event>
 4    2  0.2130683E+006  0.3023256E+01  0.7546771E-02  0.2514882E+00
         22   -1    0    0    0    0  0.00000000000E+00  0.00000000000E+00  0.21562518578E+01  0.21562518578E+01  0.00000000000E+00 0. -1.
         22   -1    0    0    0    0 -0.00000000000E+00 -0.00000000000E+00 -0.65087124723E+01  0.65087124723E+01  0.00000000000E+00 0.  1.
          4    1    1    2  501    0  0.30077592737E+01  0.30571581393E+00 -0.47347384428E+01  0.56176352791E+01  0.00000000000E+00 0.  1.
         -4    1    1    2    0  501 -0.30077592737E+01 -0.30571581393E+00  0.38227782827E+00  0.30473290511E+01  0.00000000000E+00 0. -1.
<mgrwt>
<rscale>  0 0.30232562E+01</rscale>
<asrwt>0</asrwt>
<pdfrwt beam="1">0</pdfrwt>
<pdfrwt beam="2">0</pdfrwt>
<totfact> 0.10985703E+12</totfact>
</mgrwt>
</event>
<event>
 4    2  0.2130683E+006  0.2434251E+01  0.7546771E-02  0.2738246E+00
         22   -1    0    0    0    0  0.00000000000E+00  0.00000000000E+00  0.21225381113E+02  0.21225381113E+02  0.00000000000E+00 0. -1.
         22   -1    0    0    0    0 -0.00000000000E+00 -0.00000000000E+00 -0.52530776702E+00  0.52530776702E+00  0.00000000000E+00 0.  1.
          4    1    1    2  501    0  0.24323494842E+01 -0.96189265899E-01  0.29057749707E+01  0.37906601758E+01  0.00000000000E+00 0.  1.
         -4    1    1    2    0  501 -0.24323494842E+01  0.96189265899E-01  0.17794298376E+02  0.17960028705E+02  0.00000000000E+00 0. -1.
<mgrwt>
<rscale>  0 0.24342507E+01</rscale>
<asrwt>0</asrwt>
<pdfrwt beam="1">0</pdfrwt>
<pdfrwt beam="2">0</pdfrwt>
<totfact> 0.13066770E+12</totfact>
</mgrwt>
</event>
<event>
 4    2  0.2130683E+006  0.2425348E+01  0.7546771E-02  0.2742385E+00
         22   -1    0    0    0    0  0.00000000000E+00  0.00000000000E+00  0.36638613060E+01  0.36638613060E+01  0.00000000000E+00 0.  1.
         22   -1    0    0    0    0 -0.00000000000E+00 -0.00000000000E+00 -0.30767816258E+01  0.30767816258E+01  0.00000000000E+00 0. -1.
          4    1    1    2  501    0 -0.91578332464E+00  0.22458085730E+01 -0.20370801262E+01  0.31673349499E+01  0.00000000000E+00 0. -1.
         -4    1    1    2    0  501  0.91578332464E+00 -0.22458085730E+01  0.26241598064E+01  0.35733079820E+01  0.00000000000E+00 0.  1.
<mgrwt>
<rscale>  0 0.24253485E+01</rscale>
<asrwt>0</asrwt>
<pdfrwt beam="1">0</pdfrwt>
<pdfrwt beam="2">0</pdfrwt>
<totfact> 0.14335421E+12</totfact>
</mgrwt>
</event>
<event>
 4    2  0.2130683E+006  0.3946581E+01  0.7546771E-02  0.2287623E+00
         22   -1    0    0    0    0  0.00000000000E+00  0.00000000000E+00  0.26145284149E+01  0.26145284149E+01  0.00000000000E+00 0.  1.
         22   -1    0    0    0    0 -0.00000000000E+00 -0.00000000000E+00 -0.61412109824E+01  0.61412109824E+01  0.00000000000E+00 0. -1.
          4    1    1    2  501    0 -0.35930209590E+01 -0.16326978252E+01 -0.25209630546E+01  0.46830285631E+01  0.00000000000E+00 0. -1.
         -4    1    1    2    0  501  0.35930209590E+01  0.16326978252E+01 -0.10057195129E+01  0.40727108342E+01  0.00000000000E+00 0.  1.
<mgrwt>
<rscale>  0 0.39465810E+01</rscale>
<asrwt>0</asrwt>
<pdfrwt beam="1">0</pdfrwt>
<pdfrwt beam="2">0</pdfrwt>
<totfact> 0.94121159E+11</totfact>
</mgrwt>
</event>
<event>
 4    2  0.2130683E+006  0.3510254E+01  0.7546771E-02  0.2381985E+00
         22   -1    0    0    0    0  0.00000000000E+00  0.00000000000E+00  0.29738063863E+00  0.29738063863E+00  0.00000000000E+00 0.  1.
         22   -1    0    0    0    0 -0.00000000000E+00 -0.00000000000E+00 -0.60473598872E+02  0.60473598872E+02  0.00000000000E+00 0. -1.
          4    1    1    2  501    0 -0.34640029485E+01 -0.56795148625E+00 -0.47137306895E+02  0.47267828241E+02  0.00000000000E+00 0. -1.
         -4    1    1    2    0  501  0.34640029485E+01  0.56795148625E+00 -0.13038911338E+02  0.13503151270E+02  0.00000000000E+00 0.  1.
<mgrwt>
<rscale>  0 0.35102543E+01</rscale>
<asrwt>0</asrwt>
<pdfrwt beam="1">0</pdfrwt>
<pdfrwt beam="2">0</pdfrwt>
<totfact> 0.64187861E+11</totfact>
</mgrwt>
</event>
<event>
 4    2  0.2130683E+006  0.2119514E+01  0.7546771E-02  0.2904475E+00
         22   -1    0    0    0    0  0.00000000000E+00  0.00000000000E+00  0.72474929544E-01  0.72474929544E-01  0.00000000000E+00 0.  1.
         22   -1    0    0    0    0 -0.00000000000E+00 -0.00000000000E+00 -0.62482335057E+02  0.62482335057E+02  0.00000000000E+00 0. -1.
          4    1    1    2  501    0 -0.20817368072E+01 -0.39838433504E+00 -0.28413679290E+02  0.28492622010E+02  0.00000000000E+00 0. -1.
         -4    1    1    2    0  501  0.20817368072E+01  0.39838433504E+00 -0.33996180838E+02  0.34062187977E+02  0.00000000000E+00 0.  1.
<mgrwt>
<rscale>  0 0.21195137E+01</rscale>
<asrwt>0</asrwt>
<pdfrwt beam="1">0</pdfrwt>
<pdfrwt beam="2">0</pdfrwt>
<totfact> 0.29515054E+12</totfact>
</mgrwt>
</event>
<event>
 4    2  0.2130683E+006  0.2520819E+01  0.7546771E-02  0.2699422E+00
         22   -1    0    0    0    0  0.00000000000E+00  0.00000000000E+00  0.26763699502E+00  0.26763699502E+00  0.00000000000E+00 0.  1.
         22   -1    0    0    0    0 -0.00000000000E+00 -0.00000000000E+00 -0.27194194039E+02  0.27194194039E+02  0.00000000000E+00 0. -1.
          4    1    1    2  501    0  0.23756584763E+01  0.84307468557E+00 -0.18354763146E+02  0.18527057464E+02  0.00000000000E+00 0. -1.
         -4    1    1    2    0  501 -0.23756584763E+01 -0.84307468557E+00 -0.85717938976E+01  0.89347735698E+01  0.00000000000E+00 0.  1.
<mgrwt>
<rscale>  0 0.25208189E+01</rscale>
<asrwt>0</asrwt>
<pdfrwt beam="1">0</pdfrwt>
<pdfrwt beam="2">0</pdfrwt>
<totfact> 0.20421359E+12</totfact>
</mgrwt>
</event>
<event>
 4    2  0.2130683E+006  0.2113471E+01  0.7546771E-02  0.2908129E+00
         22   -1    0    0    0    0  0.00000000000E+00  0.00000000000E+00  0.20134958703E+02  0.20134958703E+02  0.00000000000E+00 0.  1.
         22   -1    0    0    0    0 -0.00000000000E+00 -0.00000000000E+00 -0.23298503949E+00  0.23298503949E+00  0.00000000000E+00 0. -1.
          4    1    1    2  501    0  0.15312076975E+01 -0.14567641956E+01  0.77237063063E+01  0.80076462235E+01  0.00000000000E+00 0.  1.
         -4    1    1    2    0  501 -0.15312076975E+01  0.14567641956E+01  0.12178267357E+02  0.12360297519E+02  0.00000000000E+00 0. -1.
<mgrwt>
<rscale>  0 0.21134708E+01</rscale>
<asrwt>0</asrwt>
<pdfrwt beam="1">0</pdfrwt>
<pdfrwt beam="2">0</pdfrwt>
<totfact> 0.34793149E+12</totfact>
</mgrwt>
</event>
<event>
 4    2  0.2130683E+006  0.3222705E+01  0.7546771E-02  0.2456167E+00
         22   -1    0    0    0    0  0.00000000000E+00  0.00000000000E+00  0.52758940880E+02  0.52758940880E+02  0.00000000000E+00 0. -1.
         22   -1    0    0    0    0 -0.00000000000E+00 -0.00000000000E+00 -0.22999428176E+00  0.22999428176E+00  0.00000000000E+00 0.  1.
          4    1    1    2  501    0 -0.29321486973E+01  0.13372840178E+01  0.16207372777E+02  0.16524671157E+02  0.00000000000E+00 0. -1.
         -4    1    1    2    0  501  0.29321486973E+01 -0.13372840178E+01  0.36321573821E+02  0.36464264005E+02  0.00000000000E+00 0.  1.
<mgrwt>
<rscale>  0 0.32227045E+01</rscale>
<asrwt>0</asrwt>
<pdfrwt beam="1">0</pdfrwt>
<pdfrwt beam="2">0</pdfrwt>
<totfact> 0.10263349E+12</totfact>
</mgrwt>
</event>
<event>
 4    2  0.2130683E+006  0.2027900E+01  0.7546771E-02  0.2962143E+00
         22   -1    0    0    0    0  0.00000000000E+00  0.00000000000E+00  0.96147855431E+00  0.96147855431E+00  0.00000000000E+00 0.  1.
         22   -1    0    0    0    0 -0.00000000000E+00 -0.00000000000E+00 -0.72731766745E+01  0.72731766745E+01  0.00000000000E+00 0. -1.
          4    1    1    2  501    0 -0.36039187505E+00  0.19956187342E+01 -0.57984225013E+01  0.61428071710E+01  0.00000000000E+00 0. -1.
         -4    1    1    2    0  501  0.36039187505E+00 -0.19956187342E+01 -0.51327561885E+00  0.20918480578E+01  0.00000000000E+00 0.  1.
<mgrwt>
<rscale>  0 0.20278995E+01</rscale>
<asrwt>0</asrwt>
<pdfrwt beam="1">0</pdfrwt>
<pdfrwt beam="2">0</pdfrwt>
<totfact> 0.24347695E+12</totfact>
</mgrwt>
</event>
<event>
 4    2  0.2130683E+006  0.2456377E+01  0.7546771E-02  0.2728080E+00
         22   -1    0    0    0    0  0.00000000000E+00  0.00000000000E+00  0.68709626656E+00  0.68709626656E+00  0.00000000000E+00 0. -1.
         22   -1    0    0    0    0 -0.00000000000E+00 -0.00000000000E+00 -0.90434217123E+01  0.90434217123E+01  0.00000000000E+00 0.  1.
          4    1    1    2  501    0  0.54333381653E+00  0.23955322858E+01 -0.50060365155E+01  0.55762162945E+01  0.00000000000E+00 0.  1.
         -4    1    1    2    0  501 -0.54333381653E+00 -0.23955322858E+01 -0.33502889303E+01  0.41543016844E+01  0.00000000000E+00 0. -1.
<mgrwt>
<rscale>  0 0.24563767E+01</rscale>
<asrwt>0</asrwt>
<pdfrwt beam="1">0</pdfrwt>
<pdfrwt beam="2">0</pdfrwt>
<totfact> 0.27467689E+12</totfact>
</mgrwt>
</event>
<event>
 4    2  0.2130683E+006  0.2444149E+01  0.7546771E-02  0.2733677E+00
         22   -1    0    0    0    0  0.00000000000E+00  0.00000000000E+00  0.29577438043E+02  0.29577438043E+02  0.00000000000E+00 0. -1.
         22   -1    0    0    0    0 -0.00000000000E+00 -0.00000000000E+00 -0.75667390704E+00  0.75667390704E+00  0.00000000000E+00 0.  1.
          4    1    1    2  501    0  0.10767864818E+01  0.21941729643E+01  0.14243616686E+01  0.28288991300E+01  0.00000000000E+00 0.  1.
         -4    1    1    2    0  501 -0.10767864818E+01 -0.21941729643E+01  0.27396402467E+02  0.27505212820E+02  0.00000000000E+00 0. -1.
<mgrwt>
<rscale>  0 0.24441490E+01</rscale>
<asrwt>0</asrwt>
<pdfrwt beam="1">0</pdfrwt>
<pdfrwt beam="2">0</pdfrwt>
<totfact> 0.56851042E+11</totfact>
</mgrwt>
</event>
<event>
 4    2  0.2130683E+006  0.2310447E+01  0.7546771E-02  0.2798495E+00
         22   -1    0    0    0    0  0.00000000000E+00  0.00000000000E+00  0.17430741908E+00  0.17430741908E+00  0.00000000000E+00 0.  1.
         22   -1    0    0    0    0 -0.00000000000E+00 -0.00000000000E+00 -0.43588125484E+02  0.43588125484E+02  0.00000000000E+00 0. -1.
          4    1    1    2  501    0  0.18449451818E+01 -0.13908060598E+01 -0.97741113985E+01  0.10043476383E+02  0.00000000000E+00 0.  1.
         -4    1    1    2    0  501 -0.18449451818E+01  0.13908060598E+01 -0.33639706667E+02  0.33718956521E+02  0.00000000000E+00 0. -1.
<mgrwt>
<rscale>  0 0.23104468E+01</rscale>
<asrwt>0</asrwt>
<pdfrwt beam="1">0</pdfrwt>
<pdfrwt beam="2">0</pdfrwt>
<totfact> 0.17972862E+12</totfact>
</mgrwt>
</event>
<event>
 4    2  0.2130683E+006  0.2036004E+01  0.7546771E-02  0.2956838E+00
         22   -1    0    0    0    0  0.00000000000E+00  0.00000000000E+00  0.10033712450E+01  0.10033712450E+01  0.00000000000E+00 0. -1.
         22   -1    0    0    0    0 -0.00000000000E+00 -0.00000000000E+00 -0.41829705021E+01  0.41829705021E+01  0.00000000000E+00 0.  1.
          4    1    1    2  501    0  0.20359628246E+01 -0.12889225684E-01 -0.13018201058E+01  0.24166187832E+01  0.00000000000E+00 0.  1.
         -4    1    1    2    0  501 -0.20359628246E+01  0.12889225684E-01 -0.18777791513E+01  0.27697229639E+01  0.00000000000E+00 0. -1.
<mgrwt>
<rscale>  0 0.20360036E+01</rscale>
<asrwt>0</asrwt>
<pdfrwt beam="1">0</pdfrwt>
<pdfrwt beam="2">0</pdfrwt>
<totfact> 0.44731524E+12</totfact>
</mgrwt>
</event>
<event>
 4    2  0.2130683E+006  0.2976238E+01  0.7546771E-02  0.2529743E+00
         22   -1    0    0    0    0  0.00000000000E+00  0.00000000000E+00  0.15179190265E+01  0.15179190265E+01  0.00000000000E+00 0. -1.
         22   -1    0    0    0    0 -0.00000000000E+00 -0.00000000000E+00 -0.11013486537E+02  0.11013486537E+02  0.00000000000E+00 0.  1.
          4    1    1    2  501    0 -0.29482243237E+01  0.40739007160E+00 -0.90439685095E+01  0.95211007628E+01  0.00000000000E+00 0.  1.
         -4    1    1    2    0  501  0.29482243237E+01 -0.40739007160E+00 -0.45159900059E+00  0.30103048003E+01  0.00000000000E+00 0. -1.
<mgrwt>
<rscale>  0 0.29762381E+01</rscale>
<asrwt>0</asrwt>
<pdfrwt beam="1">0</pdfrwt>
<pdfrwt beam="2">0</pdfrwt>
<totfact> 0.87478038E+11</totfact>
</mgrwt>
</event>
<event>
 4    2  0.2130683E+006  0.3033901E+01  0.7546771E-02  0.2511575E+00
         22   -1    0    0    0    0  0.00000000000E+00  0.00000000000E+00  0.36292777199E+02  0.36292777199E+02  0.00000000000E+00 0. -1.
         22   -1    0    0    0    0 -0.00000000000E+00 -0.00000000000E+00 -0.72725389908E+00  0.72725389908E+00  0.00000000000E+00 0.  1.
          4    1    1    2  501    0 -0.19471422026E+01 -0.23266262936E+01  0.28450038003E+01  0.41591584835E+01  0.00000000000E+00 0.  1.
         -4    1    1    2    0  501  0.19471422026E+01  0.23266262936E+01  0.32720519499E+02  0.32860872614E+02  0.00000000000E+00 0. -1.
<mgrwt>
<rscale>  0 0.30339006E+01</rscale>
<asrwt>0</asrwt>
<pdfrwt beam="1">0</pdfrwt>
<pdfrwt beam="2">0</pdfrwt>
<totfact> 0.45758124E+11</totfact>
</mgrwt>
</event>
<event>
 4    2  0.2130683E+006  0.2293926E+01  0.7546771E-02  0.2806999E+00
         22   -1    0    0    0    0  0.00000000000E+00  0.00000000000E+00  0.10170715629E+01  0.10170715629E+01  0.00000000000E+00 0. -1.
         22   -1    0    0    0    0 -0.00000000000E+00 -0.00000000000E+00 -0.15333668750E+02  0.15333668750E+02  0.00000000000E+00 0.  1.
          4    1    1    2  501    0 -0.77893991181E+00 -0.21576261066E+01 -0.13813006595E+02  0.14002187293E+02  0.00000000000E+00 0.  1.
         -4    1    1    2    0  501  0.77893991181E+00  0.21576261066E+01 -0.50359059224E+00  0.23485530198E+01  0.00000000000E+00 0. -1.
<mgrwt>
<rscale>  0 0.22939263E+01</rscale>
<asrwt>0</asrwt>
<pdfrwt beam="1">0</pdfrwt>
<pdfrwt beam="2">0</pdfrwt>
<totfact> 0.92349740E+11</totfact>
</mgrwt>
</event>
<event>
 4    2  0.2130683E+006  0.2093844E+01  0.7546771E-02  0.2920138E+00
         22   -1    0    0    0    0  0.00000000000E+00  0.00000000000E+00  0.12658912459E+01  0.12658912459E+01  0.00000000000E+00 0. -1.
         22   -1    0    0    0    0 -0.00000000000E+00 -0.00000000000E+00 -0.39661480515E+01  0.39661480515E+01  0.00000000000E+00 0.  1.
          4    1    1    2  501    0  0.63507781034E+00 -0.19952090174E+01 -0.41866129182E+00  0.21352892370E+01  0.00000000000E+00 0. -1.
         -4    1    1    2    0  501 -0.63507781034E+00  0.19952090174E+01 -0.22815955138E+01  0.30967500605E+01  0.00000000000E+00 0.  1.
<mgrwt>
<rscale>  0 0.20938440E+01</rscale>
<asrwt>0</asrwt>
<pdfrwt beam="1">0</pdfrwt>
<pdfrwt beam="2">0</pdfrwt>
<totfact> 0.36502589E+12</totfact>
</mgrwt>
</event>
<event>
 4    2  0.2130683E+006  0.2531597E+01  0.7546771E-02  0.2694762E+00
         22   -1    0    0    0    0  0.00000000000E+00  0.00000000000E+00  0.78018361666E+00  0.78018361666E+00  0.00000000000E+00 0. -1.
         22   -1    0    0    0    0 -0.00000000000E+00 -0.00000000000E+00 -0.11720461083E+02  0.11720461083E+02  0.00000000000E+00 0.  1.
          4    1    1    2  501    0 -0.13497263612E+01  0.21417799953E+01 -0.88885204335E+01  0.92420115936E+01  0.00000000000E+00 0.  1.
         -4    1    1    2    0  501  0.13497263612E+01 -0.21417799953E+01 -0.20517570328E+01  0.32586331061E+01  0.00000000000E+00 0. -1.
<mgrwt>
<rscale>  0 0.25315969E+01</rscale>
<asrwt>0</asrwt>
<pdfrwt beam="1">0</pdfrwt>
<pdfrwt beam="2">0</pdfrwt>
<totfact> 0.17363209E+12</totfact>
</mgrwt>
</event>
<event>
 4    2  0.2130683E+006  0.2268227E+01  0.7546771E-02  0.2820460E+00
         22   -1    0    0    0    0  0.00000000000E+00  0.00000000000E+00  0.34791376373E+00  0.34791376373E+00  0.00000000000E+00 0. -1.
         22   -1    0    0    0    0 -0.00000000000E+00 -0.00000000000E+00 -0.14849733069E+02  0.14849733069E+02  0.00000000000E+00 0.  1.
          4    1    1    2  501    0 -0.23299018872E-01 -0.22681076275E+01 -0.67598988141E+01  0.71302936146E+01  0.00000000000E+00 0.  1.
         -4    1    1    2    0  501  0.23299018872E-01  0.22681076275E+01 -0.77419204917E+01  0.80673532186E+01  0.00000000000E+00 0. -1.
<mgrwt>
<rscale>  0 0.22682273E+01</rscale>
<asrwt>0</asrwt>
<pdfrwt beam="1">0</pdfrwt>
<pdfrwt beam="2">0</pdfrwt>
<totfact> 0.32370934E+12</totfact>
</mgrwt>
</event>
<event>
 4    2  0.2130683E+006  0.3593172E+01  0.7546771E-02  0.2362533E+00
         22   -1    0    0    0    0  0.00000000000E+00  0.00000000000E+00  0.17066063741E+00  0.17066063741E+00  0.00000000000E+00 0.  1.
         22   -1    0    0    0    0 -0.00000000000E+00 -0.00000000000E+00 -0.77550663044E+02  0.77550663044E+02  0.00000000000E+00 0. -1.
          4    1    1    2  501    0 -0.35725033096E+01  0.38484228231E+00 -0.44769921152E+02  0.44913881188E+02  0.00000000000E+00 0. -1.
         -4    1    1    2    0  501  0.35725033096E+01 -0.38484228231E+00 -0.32610081255E+02  0.32807442493E+02  0.00000000000E+00 0.  1.
<mgrwt>
<rscale>  0 0.35931718E+01</rscale>
<asrwt>0</asrwt>
<pdfrwt beam="1">0</pdfrwt>
<pdfrwt beam="2">0</pdfrwt>
<totfact> 0.85233632E+11</totfact>
</mgrwt>
</event>
<event>
 4    2  0.2130683E+006  0.3154884E+01  0.7546771E-02  0.2475391E+00
         22   -1    0    0    0    0  0.00000000000E+00  0.00000000000E+00  0.13388393792E+02  0.13388393792E+02  0.00000000000E+00 0.  1.
         22   -1    0    0    0    0 -0.00000000000E+00 -0.00000000000E+00 -0.76184157099E+00  0.76184157099E+00  0.00000000000E+00 0. -1.
          4    1    1    2  501    0 -0.26263549539E+01  0.17480141355E+01  0.74132486571E+01  0.80566462883E+01  0.00000000000E+00 0.  1.
         -4    1    1    2    0  501  0.26263549539E+01 -0.17480141355E+01  0.52133035635E+01  0.60935890743E+01  0.00000000000E+00 0. -1.
<mgrwt>
<rscale>  0 0.31548841E+01</rscale>
<asrwt>0</asrwt>
<pdfrwt beam="1">0</pdfrwt>
<pdfrwt beam="2">0</pdfrwt>
<totfact> 0.15163781E+12</totfact>
</mgrwt>
</event>
<event>
 4    2  0.2130683E+006  0.2189752E+01  0.7546771E-02  0.2863430E+00
         22   -1    0    0    0    0  0.00000000000E+00  0.00000000000E+00  0.10986419981E+01  0.10986419981E+01  0.00000000000E+00 0. -1.
         22   -1    0    0    0    0 -0.00000000000E+00 -0.00000000000E+00 -0.53026383206E+01  0.53026383206E+01  0.00000000000E+00 0.  1.
          4    1    1    2  501    0  0.16923689508E+01  0.13895684305E+01 -0.34482501986E+01  0.40847818205E+01  0.00000000000E+00 0.  1.
         -4    1    1    2    0  501 -0.16923689508E+01 -0.13895684305E+01 -0.75574612391E+00  0.23164984983E+01  0.00000000000E+00 0. -1.
<mgrwt>
<rscale>  0 0.21897518E+01</rscale>
<asrwt>0</asrwt>
<pdfrwt beam="1">0</pdfrwt>
<pdfrwt beam="2">0</pdfrwt>
<totfact> 0.30468257E+12</totfact>
</mgrwt>
</event>
<event>
 4    2  0.2130683E+006  0.2193656E+01  0.7546771E-02  0.2861223E+00
         22   -1    0    0    0    0  0.00000000000E+00  0.00000000000E+00  0.63862631813E+00  0.63862631813E+00  0.00000000000E+00 0. -1.
         22   -1    0    0    0    0 -0.00000000000E+00 -0.00000000000E+00 -0.14078855572E+02  0.14078855572E+02  0.00000000000E+00 0.  1.
          4    1    1    2  501    0 -0.55585732649E+00  0.21220627362E+01 -0.11736982010E+02  0.11940220866E+02  0.00000000000E+00 0.  1.
         -4    1    1    2    0  501  0.55585732649E+00 -0.21220627362E+01 -0.17032472443E+01  0.27772610246E+01  0.00000000000E+00 0. -1.
<mgrwt>
<rscale>  0 0.21936562E+01</rscale>
<asrwt>0</asrwt>
<pdfrwt beam="1">0</pdfrwt>
<pdfrwt beam="2">0</pdfrwt>
<totfact> 0.17416827E+12</totfact>
</mgrwt>
</event>
<event>
 4    2  0.2130683E+006  0.2182282E+01  0.7546771E-02  0.2867674E+00
         22   -1    0    0    0    0  0.00000000000E+00  0.00000000000E+00  0.26610083845E+01  0.26610083845E+01  0.00000000000E+00 0.  1.
         22   -1    0    0    0    0 -0.00000000000E+00 -0.00000000000E+00 -0.36842662227E+01  0.36842662227E+01  0.00000000000E+00 0. -1.
          4    1    1    2  501    0  0.18213946163E+01 -0.12020309492E+01 -0.27867366744E+01  0.35395279408E+01  0.00000000000E+00 0. -1.
         -4    1    1    2    0  501 -0.18213946163E+01  0.12020309492E+01  0.17634788362E+01  0.28057466665E+01  0.00000000000E+00 0.  1.
<mgrwt>
<rscale>  0 0.21822825E+01</rscale>
<asrwt>0</asrwt>
<pdfrwt beam="1">0</pdfrwt>
<pdfrwt beam="2">0</pdfrwt>
<totfact> 0.16870749E+12</totfact>
</mgrwt>
</event>
<event>
 4    2  0.2130683E+006  0.2018784E+01  0.7546771E-02  0.2968160E+00
         22   -1    0    0    0    0  0.00000000000E+00  0.00000000000E+00  0.18133916760E+01  0.18133916760E+01  0.00000000000E+00 0.  1.
         22   -1    0    0    0    0 -0.00000000000E+00 -0.00000000000E+00 -0.28442950476E+01  0.28442950476E+01  0.00000000000E+00 0. -1.
          4    1    1    2  501    0 -0.33236158552E+00 -0.19912368957E+01  0.55135927738E+00  0.20927220673E+01  0.00000000000E+00 0.  1.
         -4    1    1    2    0  501  0.33236158552E+00  0.19912368957E+01 -0.15822626490E+01  0.25649646564E+01  0.00000000000E+00 0. -1.
<mgrwt>
<rscale>  0 0.20187839E+01</rscale>
<asrwt>0</asrwt>
<pdfrwt beam="1">0</pdfrwt>
<pdfrwt beam="2">0</pdfrwt>
<totfact> 0.35630466E+12</totfact>
</mgrwt>
</event>
<event>
 4    2  0.2130683E+006  0.2496116E+01  0.7546771E-02  0.2710245E+00
         22   -1    0    0    0    0  0.00000000000E+00  0.00000000000E+00  0.11775811435E+02  0.11775811435E+02  0.00000000000E+00 0. -1.
         22   -1    0    0    0    0 -0.00000000000E+00 -0.00000000000E+00 -0.61571516849E+00  0.61571516849E+00  0.00000000000E+00 0.  1.
          4    1    1    2  501    0 -0.92617090104E+00  0.23179308557E+01  0.32562475611E+01  0.41028946085E+01  0.00000000000E+00 0.  1.
         -4    1    1    2    0  501  0.92617090104E+00 -0.23179308557E+01  0.79038487051E+01  0.82886319946E+01  0.00000000000E+00 0. -1.
<mgrwt>
<rscale>  0 0.24961162E+01</rscale>
<asrwt>0</asrwt>
<pdfrwt beam="1">0</pdfrwt>
<pdfrwt beam="2">0</pdfrwt>
<totfact> 0.22585401E+12</totfact>
</mgrwt>
</event>
<event>
 4    2  0.2130683E+006  0.7800479E+01  0.7546771E-02  0.1888018E+00
         22   -1    0    0    0    0  0.00000000000E+00  0.00000000000E+00  0.86762799806E+01  0.86762799806E+01  0.00000000000E+00 0.  1.
         22   -1    0    0    0    0 -0.00000000000E+00 -0.00000000000E+00 -0.71541044560E+01  0.71541044560E+01  0.00000000000E+00 0. -1.
          4    1    1    2  501    0  0.75438191791E+01 -0.19845045019E+01  0.18723778439E+01  0.80220486607E+01  0.00000000000E+00 0.  1.
         -4    1    1    2    0  501 -0.75438191791E+01  0.19845045019E+01 -0.35020231917E+00  0.78083357759E+01  0.00000000000E+00 0. -1.
<mgrwt>
<rscale>  0 0.78004786E+01</rscale>
<asrwt>0</asrwt>
<pdfrwt beam="1">0</pdfrwt>
<pdfrwt beam="2">0</pdfrwt>
<totfact> 0.18975555E+11</totfact>
</mgrwt>
</event>
<event>
 4    2  0.2130683E+006  0.3559934E+01  0.7546771E-02  0.2370236E+00
         22   -1    0    0    0    0  0.00000000000E+00  0.00000000000E+00  0.11247105948E+01  0.11247105948E+01  0.00000000000E+00 0. -1.
         22   -1    0    0    0    0 -0.00000000000E+00 -0.00000000000E+00 -0.11459229514E+02  0.11459229514E+02  0.00000000000E+00 0.  1.
          4    1    1    2  501    0  0.31213597808E+01 -0.17117949250E+01 -0.59802727903E+01  0.69596545455E+01  0.00000000000E+00 0.  1.
         -4    1    1    2    0  501 -0.31213597808E+01  0.17117949250E+01 -0.43542461294E+01  0.56242855637E+01  0.00000000000E+00 0. -1.
<mgrwt>
<rscale>  0 0.35599338E+01</rscale>
<asrwt>0</asrwt>
<pdfrwt beam="1">0</pdfrwt>
<pdfrwt beam="2">0</pdfrwt>
<totfact> 0.11759001E+12</totfact>
</mgrwt>
</event>
<event>
 4    2  0.2130683E+006  0.2923898E+01  0.7546771E-02  0.2546790E+00
         22   -1    0    0    0    0  0.00000000000E+00  0.00000000000E+00  0.12149767551E+01  0.12149767551E+01  0.00000000000E+00 0.  1.
         22   -1    0    0    0    0 -0.00000000000E+00 -0.00000000000E+00 -0.17534735804E+02  0.17534735804E+02  0.00000000000E+00 0. -1.
          4    1    1    2  501    0  0.26318212972E+01 -0.12738504050E+01 -0.15413807925E+02  0.15688679133E+02  0.00000000000E+00 0. -1.
         -4    1    1    2    0  501 -0.26318212972E+01  0.12738504050E+01 -0.90595112352E+00  0.30610334256E+01  0.00000000000E+00 0.  1.
<mgrwt>
<rscale>  0 0.29238978E+01</rscale>
<asrwt>0</asrwt>
<pdfrwt beam="1">0</pdfrwt>
<pdfrwt beam="2">0</pdfrwt>
<totfact> 0.63847036E+11</totfact>
</mgrwt>
</event>
<event>
 4    2  0.2130683E+006  0.2516877E+01  0.7546771E-02  0.2701136E+00
         22   -1    0    0    0    0  0.00000000000E+00  0.00000000000E+00  0.75780772965E+01  0.75780772965E+01  0.00000000000E+00 0. -1.
         22   -1    0    0    0    0 -0.00000000000E+00 -0.00000000000E+00 -0.10509178229E+01  0.10509178229E+01  0.00000000000E+00 0.  1.
          4    1    1    2  501    0 -0.17500227230E+01 -0.18088920407E+01  0.13121073792E+01  0.28383614499E+01  0.00000000000E+00 0. -1.
         -4    1    1    2    0  501  0.17500227230E+01  0.18088920407E+01  0.52150520944E+01  0.57906336694E+01  0.00000000000E+00 0.  1.
<mgrwt>
<rscale>  0 0.25168770E+01</rscale>
<asrwt>0</asrwt>
<pdfrwt beam="1">0</pdfrwt>
<pdfrwt beam="2">0</pdfrwt>
<totfact> 0.20941388E+12</totfact>
</mgrwt>
</event>
<event>
 4    2  0.2130683E+006  0.4807095E+01  0.7546771E-02  0.2146759E+00
         22   -1    0    0    0    0  0.00000000000E+00  0.00000000000E+00  0.16842164091E+02  0.16842164091E+02  0.00000000000E+00 0. -1.
         22   -1    0    0    0    0 -0.00000000000E+00 -0.00000000000E+00 -0.14176137704E+01  0.14176137704E+01  0.00000000000E+00 0.  1.
          4    1    1    2  501    0  0.16741917596E+01 -0.45061339435E+01  0.93492166779E+01  0.10512659685E+02  0.00000000000E+00 0. -1.
         -4    1    1    2    0  501 -0.16741917596E+01  0.45061339435E+01  0.60753336425E+01  0.77471181760E+01  0.00000000000E+00 0.  1.
<mgrwt>
<rscale>  0 0.48070949E+01</rscale>
<asrwt>0</asrwt>
<pdfrwt beam="1">0</pdfrwt>
<pdfrwt beam="2">0</pdfrwt>
<totfact> 0.56225255E+11</totfact>
</mgrwt>
</event>
<event>
 4    2  0.2130683E+006  0.2676093E+01  0.7546771E-02  0.2635644E+00
         22   -1    0    0    0    0  0.00000000000E+00  0.00000000000E+00  0.37075310836E+01  0.37075310836E+01  0.00000000000E+00 0. -1.
         22   -1    0    0    0    0 -0.00000000000E+00 -0.00000000000E+00 -0.19400541560E+01  0.19400541560E+01  0.00000000000E+00 0.  1.
          4    1    1    2  501    0  0.24177754297E+01 -0.11470987935E+01  0.69735169932E+00  0.27654607325E+01  0.00000000000E+00 0. -1.
         -4    1    1    2    0  501 -0.24177754297E+01  0.11470987935E+01  0.10701252282E+01  0.28821245071E+01  0.00000000000E+00 0.  1.
<mgrwt>
<rscale>  0 0.26760930E+01</rscale>
<asrwt>0</asrwt>
<pdfrwt beam="1">0</pdfrwt>
<pdfrwt beam="2">0</pdfrwt>
<totfact> 0.24167690E+12</totfact>
</mgrwt>
</event>
<event>
 4    2  0.2130683E+006  0.2170481E+01  0.7546771E-02  0.2874436E+00
         22   -1    0    0    0    0  0.00000000000E+00  0.00000000000E+00  0.47925318794E+01  0.47925318794E+01  0.00000000000E+00 0.  1.
         22   -1    0    0    0    0 -0.00000000000E+00 -0.00000000000E+00 -0.16536365796E+01  0.16536365796E+01  0.00000000000E+00 0. -1.
          4    1    1    2  501    0  0.21599566274E+01 -0.21348423833E+00 -0.48313197960E+00  0.22236017319E+01  0.00000000000E+00 0. -1.
         -4    1    1    2    0  501 -0.21599566274E+01  0.21348423833E+00  0.36220272794E+01  0.42225667271E+01  0.00000000000E+00 0.  1.
<mgrwt>
<rscale>  0 0.21704811E+01</rscale>
<asrwt>0</asrwt>
<pdfrwt beam="1">0</pdfrwt>
<pdfrwt beam="2">0</pdfrwt>
<totfact> 0.21475849E+12</totfact>
</mgrwt>
</event>
<event>
 4    2  0.2130683E+006  0.2057141E+01  0.7546771E-02  0.2943193E+00
         22   -1    0    0    0    0  0.00000000000E+00  0.00000000000E+00  0.67936045323E+01  0.67936045323E+01  0.00000000000E+00 0.  1.
         22   -1    0    0    0    0 -0.00000000000E+00 -0.00000000000E+00 -0.11251828353E+01  0.11251828353E+01  0.00000000000E+00 0. -1.
          4    1    1    2  501    0  0.16887724939E+01 -0.11746814718E+01  0.18884710055E+00  0.20657909680E+01  0.00000000000E+00 0. -1.
         -4    1    1    2    0  501 -0.16887724939E+01  0.11746814718E+01  0.54795745964E+01  0.58529963996E+01  0.00000000000E+00 0.  1.
<mgrwt>
<rscale>  0 0.20571410E+01</rscale>
<asrwt>0</asrwt>
<pdfrwt beam="1">0</pdfrwt>
<pdfrwt beam="2">0</pdfrwt>
<totfact> 0.22073429E+12</totfact>
</mgrwt>
</event>
<event>
 4    2  0.2130683E+006  0.2134985E+01  0.7546771E-02  0.2895210E+00
         22   -1    0    0    0    0  0.00000000000E+00  0.00000000000E+00  0.47868462413E+01  0.47868462413E+01  0.00000000000E+00 0. -1.
         22   -1    0    0    0    0 -0.00000000000E+00 -0.00000000000E+00 -0.11936526288E+01  0.11936526288E+01  0.00000000000E+00 0.  1.
          4    1    1    2  501    0  0.29738789663E+00  0.21141716302E+01  0.45178756287E+00  0.21822633308E+01  0.00000000000E+00 0.  1.
         -4    1    1    2    0  501 -0.29738789663E+00 -0.21141716302E+01  0.31414060497E+01  0.37982355393E+01  0.00000000000E+00 0. -1.
<mgrwt>
<rscale>  0 0.21349851E+01</rscale>
<asrwt>0</asrwt>
<pdfrwt beam="1">0</pdfrwt>
<pdfrwt beam="2">0</pdfrwt>
<totfact> 0.31277949E+12</totfact>
</mgrwt>
</event>
<event>
 4    2  0.2130683E+006  0.2271489E+01  0.7546771E-02  0.2818736E+00
         22   -1    0    0    0    0  0.00000000000E+00  0.00000000000E+00  0.79378867444E+00  0.79378867444E+00  0.00000000000E+00 0.  1.
         22   -1    0    0    0    0 -0.00000000000E+00 -0.00000000000E+00 -0.68311048394E+01  0.68311048394E+01  0.00000000000E+00 0. -1.
          4    1    1    2  501    0  0.17167307545E+01  0.14874462688E+01 -0.38579490871E+01  0.44769891719E+01  0.00000000000E+00 0. -1.
         -4    1    1    2    0  501 -0.17167307545E+01 -0.14874462688E+01 -0.21793670779E+01  0.31479043420E+01  0.00000000000E+00 0.  1.
<mgrwt>
<rscale>  0 0.22714887E+01</rscale>
<asrwt>0</asrwt>
<pdfrwt beam="1">0</pdfrwt>
<pdfrwt beam="2">0</pdfrwt>
<totfact> 0.32650940E+12</totfact>
</mgrwt>
</event>
<event>
 4    2  0.2130683E+006  0.2277720E+01  0.7546771E-02  0.2815454E+00
         22   -1    0    0    0    0  0.00000000000E+00  0.00000000000E+00  0.15723092962E+01  0.15723092962E+01  0.00000000000E+00 0. -1.
         22   -1    0    0    0    0 -0.00000000000E+00 -0.00000000000E+00 -0.81390369467E+01  0.81390369467E+01  0.00000000000E+00 0.  1.
          4    1    1    2  501    0 -0.12790422941E+01  0.18846913469E+01 -0.70275704825E+01  0.73874730151E+01  0.00000000000E+00 0.  1.
         -4    1    1    2    0  501  0.12790422941E+01 -0.18846913469E+01  0.46084283202E+00  0.23238732278E+01  0.00000000000E+00 0. -1.
<mgrwt>
<rscale>  0 0.22777205E+01</rscale>
<asrwt>0</asrwt>
<pdfrwt beam="1">0</pdfrwt>
<pdfrwt beam="2">0</pdfrwt>
<totfact> 0.12106600E+12</totfact>
</mgrwt>
</event>
<event>
 4    2  0.2130683E+006  0.2190741E+01  0.7546771E-02  0.2862870E+00
         22   -1    0    0    0    0  0.00000000000E+00  0.00000000000E+00  0.41460805480E+02  0.41460805480E+02  0.00000000000E+00 0. -1.
         22   -1    0    0    0    0 -0.00000000000E+00 -0.00000000000E+00 -0.11937793419E+00  0.11937793419E+00  0.00000000000E+00 0.  1.
          4    1    1    2  501    0  0.30185817917E+00  0.21698450906E+01  0.17049521997E+02  0.17189693028E+02  0.00000000000E+00 0. -1.
         -4    1    1    2    0  501 -0.30185817917E+00 -0.21698450906E+01  0.24291905549E+02  0.24390490386E+02  0.00000000000E+00 0.  1.
<mgrwt>
<rscale>  0 0.21907410E+01</rscale>
<asrwt>0</asrwt>
<pdfrwt beam="1">0</pdfrwt>
<pdfrwt beam="2">0</pdfrwt>
<totfact> 0.29216537E+12</totfact>
</mgrwt>
</event>
<event>
 4    2  0.2130683E+006  0.5087490E+01  0.7546771E-02  0.2112703E+00
         22   -1    0    0    0    0  0.00000000000E+00  0.00000000000E+00  0.26659496222E+01  0.26659496222E+01  0.00000000000E+00 0. -1.
         22   -1    0    0    0    0 -0.00000000000E+00 -0.00000000000E+00 -0.97134773661E+01  0.97134773661E+01  0.00000000000E+00 0.  1.
          4    1    1    2  501    0  0.28139188762E+01  0.42384443432E+01 -0.36629354742E+01  0.62689429875E+01  0.00000000000E+00 0.  1.
         -4    1    1    2    0  501 -0.28139188762E+01 -0.42384443432E+01 -0.33845922697E+01  0.61104840008E+01  0.00000000000E+00 0. -1.
<mgrwt>
<rscale>  0 0.50874895E+01</rscale>
<asrwt>0</asrwt>
<pdfrwt beam="1">0</pdfrwt>
<pdfrwt beam="2">0</pdfrwt>
<totfact> 0.53071771E+11</totfact>
</mgrwt>
</event>
<event>
 4    2  0.2130683E+006  0.3164000E+01  0.7546771E-02  0.2472764E+00
         22   -1    0    0    0    0  0.00000000000E+00  0.00000000000E+00  0.14420890503E+02  0.14420890503E+02  0.00000000000E+00 0. -1.
         22   -1    0    0    0    0 -0.00000000000E+00 -0.00000000000E+00 -0.11494925518E+01  0.11494925518E+01  0.00000000000E+00 0.  1.
          4    1    1    2  501    0 -0.31622468735E+01  0.10532683348E+00  0.17360581625E+01  0.36089883589E+01  0.00000000000E+00 0.  1.
         -4    1    1    2    0  501  0.31622468735E+01 -0.10532683348E+00  0.11535339788E+02  0.11961394695E+02  0.00000000000E+00 0. -1.
<mgrwt>
<rscale>  0 0.31640005E+01</rscale>
<asrwt>0</asrwt>
<pdfrwt beam="1">0</pdfrwt>
<pdfrwt beam="2">0</pdfrwt>
<totfact> 0.86588687E+11</totfact>
</mgrwt>
</event>
<event>
 4    2  0.2130683E+006  0.3482935E+01  0.7546771E-02  0.2388570E+00
         22   -1    0    0    0    0  0.00000000000E+00  0.00000000000E+00  0.16717309295E+02  0.16717309295E+02  0.00000000000E+00 0. -1.
         22   -1    0    0    0    0 -0.00000000000E+00 -0.00000000000E+00 -0.13646425590E+01  0.13646425590E+01  0.00000000000E+00 0.  1.
          4    1    1    2  501    0  0.66055203282E-01 -0.34823086983E+01  0.14896861790E+01  0.37881396584E+01  0.00000000000E+00 0.  1.
         -4    1    1    2    0  501 -0.66055203282E-01  0.34823086983E+01  0.13862980557E+02  0.14293812196E+02  0.00000000000E+00 0. -1.
<mgrwt>
<rscale>  0 0.34829351E+01</rscale>
<asrwt>0</asrwt>
<pdfrwt beam="1">0</pdfrwt>
<pdfrwt beam="2">0</pdfrwt>
<totfact> 0.59282829E+11</totfact>
</mgrwt>
</event>
<event>
 4    2  0.2130683E+006  0.2171606E+01  0.7546771E-02  0.2873789E+00
         22   -1    0    0    0    0  0.00000000000E+00  0.00000000000E+00  0.20295577976E+00  0.20295577976E+00  0.00000000000E+00 0.  1.
         22   -1    0    0    0    0 -0.00000000000E+00 -0.00000000000E+00 -0.31966101006E+02  0.31966101006E+02  0.00000000000E+00 0. -1.
          4    1    1    2  501    0  0.83081755509E+00 -0.20063937351E+01 -0.24287274316E+02  0.24384166324E+02  0.00000000000E+00 0. -1.
         -4    1    1    2    0  501 -0.83081755509E+00  0.20063937351E+01 -0.74758709096E+01  0.77848904608E+01  0.00000000000E+00 0.  1.
<mgrwt>
<rscale>  0 0.21716062E+01</rscale>
<asrwt>0</asrwt>
<pdfrwt beam="1">0</pdfrwt>
<pdfrwt beam="2">0</pdfrwt>
<totfact> 0.22643698E+12</totfact>
</mgrwt>
</event>
<event>
 4    2  0.2130683E+006  0.2323906E+01  0.7546771E-02  0.2791652E+00
         22   -1    0    0    0    0  0.00000000000E+00  0.00000000000E+00  0.22298897530E+02  0.22298897530E+02  0.00000000000E+00 0. -1.
         22   -1    0    0    0    0 -0.00000000000E+00 -0.00000000000E+00 -0.51375885520E+00  0.51375885520E+00  0.00000000000E+00 0.  1.
          4    1    1    2  501    0  0.23219477948E+01 -0.95376983378E-01  0.25996523292E+01  0.34869371322E+01  0.00000000000E+00 0.  1.
         -4    1    1    2    0  501 -0.23219477948E+01  0.95376983378E-01  0.19185486346E+02  0.19325719253E+02  0.00000000000E+00 0. -1.
<mgrwt>
<rscale>  0 0.23239058E+01</rscale>
<asrwt>0</asrwt>
<pdfrwt beam="1">0</pdfrwt>
<pdfrwt beam="2">0</pdfrwt>
<totfact> 0.12596155E+12</totfact>
</mgrwt>
</event>
<event>
 4    2  0.2130683E+006  0.2219598E+01  0.7546771E-02  0.2846746E+00
         22   -1    0    0    0    0  0.00000000000E+00  0.00000000000E+00  0.65322635958E+00  0.65322635958E+00  0.00000000000E+00 0. -1.
         22   -1    0    0    0    0 -0.00000000000E+00 -0.00000000000E+00 -0.75914143607E+01  0.75914143607E+01  0.00000000000E+00 0.  1.
          4    1    1    2  501    0  0.15060976981E+01  0.16304242378E+01 -0.31364040468E+01  0.38423487370E+01  0.00000000000E+00 0. -1.
         -4    1    1    2    0  501 -0.15060976981E+01 -0.16304242378E+01 -0.38017839543E+01  0.44022919833E+01  0.00000000000E+00 0.  1.
<mgrwt>
<rscale>  0 0.22195976E+01</rscale>
<asrwt>0</asrwt>
<pdfrwt beam="1">0</pdfrwt>
<pdfrwt beam="2">0</pdfrwt>
<totfact> 0.35903927E+12</totfact>
</mgrwt>
</event>
<event>
 4    2  0.2130683E+006  0.2497281E+01  0.7546771E-02  0.2709730E+00
         22   -1    0    0    0    0  0.00000000000E+00  0.00000000000E+00  0.18066181998E+01  0.18066181998E+01  0.00000000000E+00 0. -1.
         22   -1    0    0    0    0 -0.00000000000E+00 -0.00000000000E+00 -0.34521318679E+01  0.34521318679E+01  0.00000000000E+00 0.  1.
          4    1    1    2  501    0 -0.74926152233E+00 -0.23822300004E+01 -0.84011029930E+00  0.26348051007E+01  0.00000000000E+00 0. -1.
         -4    1    1    2    0  501  0.74926152233E+00  0.23822300004E+01 -0.80540336888E+00  0.26239449670E+01  0.00000000000E+00 0.  1.
<mgrwt>
<rscale>  0 0.24972810E+01</rscale>
<asrwt>0</asrwt>
<pdfrwt beam="1">0</pdfrwt>
<pdfrwt beam="2">0</pdfrwt>
<totfact> 0.28534527E+12</totfact>
</mgrwt>
</event>
<event>
 4    2  0.2130683E+006  0.2017420E+01  0.7546771E-02  0.2969065E+00
         22   -1    0    0    0    0  0.00000000000E+00  0.00000000000E+00  0.53287677439E+02  0.53287677439E+02  0.00000000000E+00 0. -1.
         22   -1    0    0    0    0 -0.00000000000E+00 -0.00000000000E+00 -0.61405652768E+00  0.61405652768E+00  0.00000000000E+00 0.  1.
          4    1    1    2  501    0  0.17358349494E+01 -0.10280374713E+01  0.11176816796E+01  0.23063382993E+01  0.00000000000E+00 0.  1.
         -4    1    1    2    0  501 -0.17358349494E+01  0.10280374713E+01  0.51555939231E+02  0.51595395667E+02  0.00000000000E+00 0. -1.
<mgrwt>
<rscale>  0 0.20174201E+01</rscale>
<asrwt>0</asrwt>
<pdfrwt beam="1">0</pdfrwt>
<pdfrwt beam="2">0</pdfrwt>
<totfact> 0.33555761E+11</totfact>
</mgrwt>
</event>
<event>
 4    2  0.2130683E+006  0.2803883E+01  0.7546771E-02  0.2588040E+00
         22   -1    0    0    0    0  0.00000000000E+00  0.00000000000E+00  0.73830800511E+01  0.73830800511E+01  0.00000000000E+00 0. -1.
         22   -1    0    0    0    0 -0.00000000000E+00 -0.00000000000E+00 -0.13788359137E+01  0.13788359137E+01  0.00000000000E+00 0.  1.
          4    1    1    2  501    0 -0.27029304033E+01  0.74560478042E+00  0.91148564755E+00  0.29483156784E+01  0.00000000000E+00 0.  1.
         -4    1    1    2    0  501  0.27029304033E+01 -0.74560478042E+00  0.50927584898E+01  0.58136002864E+01  0.00000000000E+00 0. -1.
<mgrwt>
<rscale>  0 0.28038829E+01</rscale>
<asrwt>0</asrwt>
<pdfrwt beam="1">0</pdfrwt>
<pdfrwt beam="2">0</pdfrwt>
<totfact> 0.15828558E+12</totfact>
</mgrwt>
</event>
<event>
 4    2  0.2130683E+006  0.2218367E+01  0.7546771E-02  0.2847425E+00
         22   -1    0    0    0    0  0.00000000000E+00  0.00000000000E+00  0.35428646412E+00  0.35428646412E+00  0.00000000000E+00 0.  1.
         22   -1    0    0    0    0 -0.00000000000E+00 -0.00000000000E+00 -0.14699744904E+02  0.14699744904E+02  0.00000000000E+00 0. -1.
          4    1    1    2  501    0  0.18003749012E+01  0.12960722440E+01 -0.54064649573E+01  0.58438870952E+01  0.00000000000E+00 0.  1.
         -4    1    1    2    0  501 -0.18003749012E+01 -0.12960722440E+01 -0.89389934822E+01  0.92101442726E+01  0.00000000000E+00 0. -1.
<mgrwt>
<rscale>  0 0.22183672E+01</rscale>
<asrwt>0</asrwt>
<pdfrwt beam="1">0</pdfrwt>
<pdfrwt beam="2">0</pdfrwt>
<totfact> 0.32115599E+12</totfact>
</mgrwt>
</event>
<event>
 4    2  0.2130683E+006  0.2365772E+01  0.7546771E-02  0.2770837E+00
         22   -1    0    0    0    0  0.00000000000E+00  0.00000000000E+00  0.21232209248E+01  0.21232209248E+01  0.00000000000E+00 0.  1.
         22   -1    0    0    0    0 -0.00000000000E+00 -0.00000000000E+00 -0.75970573874E+01  0.75970573874E+01  0.00000000000E+00 0. -1.
          4    1    1    2  501    0  0.23079460144E+01  0.51986950490E+00 -0.66643776728E+01  0.70718320733E+01  0.00000000000E+00 0. -1.
         -4    1    1    2    0  501 -0.23079460144E+01 -0.51986950490E+00  0.11905412102E+01  0.26484462390E+01  0.00000000000E+00 0.  1.
<mgrwt>
<rscale>  0 0.23657724E+01</rscale>
<asrwt>0</asrwt>
<pdfrwt beam="1">0</pdfrwt>
<pdfrwt beam="2">0</pdfrwt>
<totfact> 0.92949947E+11</totfact>
</mgrwt>
</event>
<event>
 4    2  0.2130683E+006  0.2172967E+01  0.7546771E-02  0.2873006E+00
         22   -1    0    0    0    0  0.00000000000E+00  0.00000000000E+00  0.73517831355E+02  0.73517831355E+02  0.00000000000E+00 0.  1.
         22   -1    0    0    0    0 -0.00000000000E+00 -0.00000000000E+00 -0.92029666603E-01  0.92029666603E-01  0.00000000000E+00 0. -1.
          4    1    1    2  501    0  0.10087666050E+01 -0.19246238784E+01  0.16483182732E+02  0.16625796225E+02  0.00000000000E+00 0. -1.
         -4    1    1    2    0  501 -0.10087666050E+01  0.19246238784E+01  0.56942618956E+02  0.56984064797E+02  0.00000000000E+00 0.  1.
<mgrwt>
<rscale>  0 0.21729674E+01</rscale>
<asrwt>0</asrwt>
<pdfrwt beam="1">0</pdfrwt>
<pdfrwt beam="2">0</pdfrwt>
<totfact> 0.18192254E+12</totfact>
</mgrwt>
</event>
<event>
 4    2  0.2130683E+006  0.2326121E+01  0.7546771E-02  0.2790533E+00
         22   -1    0    0    0    0  0.00000000000E+00  0.00000000000E+00  0.17508451286E+01  0.17508451286E+01  0.00000000000E+00 0.  1.
         22   -1    0    0    0    0 -0.00000000000E+00 -0.00000000000E+00 -0.46189057955E+01  0.46189057955E+01  0.00000000000E+00 0. -1.
          4    1    1    2  501    0 -0.17590131224E+00  0.23194604333E+01 -0.32661520495E+01  0.40098113651E+01  0.00000000000E+00 0. -1.
         -4    1    1    2    0  501  0.17590131224E+00 -0.23194604333E+01  0.39809138257E+00  0.23599395590E+01  0.00000000000E+00 0.  1.
<mgrwt>
<rscale>  0 0.23261208E+01</rscale>
<asrwt>0</asrwt>
<pdfrwt beam="1">0</pdfrwt>
<pdfrwt beam="2">0</pdfrwt>
<totfact> 0.21003298E+12</totfact>
</mgrwt>
</event>
<event>
 4    2  0.2130683E+006  0.3081605E+01  0.7546771E-02  0.2497005E+00
         22   -1    0    0    0    0  0.00000000000E+00  0.00000000000E+00  0.84152513597E+00  0.84152513597E+00  0.00000000000E+00 0. -1.
         22   -1    0    0    0    0 -0.00000000000E+00 -0.00000000000E+00 -0.12942086582E+02  0.12942086582E+02  0.00000000000E+00 0.  1.
          4    1    1    2  501    0  0.11918971704E+01 -0.28417722459E+01 -0.35839361902E+01  0.47266147482E+01  0.00000000000E+00 0. -1.
         -4    1    1    2    0  501 -0.11918971704E+01  0.28417722459E+01 -0.85166252560E+01  0.90569969700E+01  0.00000000000E+00 0.  1.
<mgrwt>
<rscale>  0 0.30816048E+01</rscale>
<asrwt>0</asrwt>
<pdfrwt beam="1">0</pdfrwt>
<pdfrwt beam="2">0</pdfrwt>
<totfact> 0.14114960E+12</totfact>
</mgrwt>
</event>
<event>
 4    2  0.2130683E+006  0.2267130E+01  0.7546771E-02  0.2821041E+00
         22   -1    0    0    0    0  0.00000000000E+00  0.00000000000E+00  0.40569388612E+00  0.40569388612E+00  0.00000000000E+00 0. -1.
         22   -1    0    0    0    0 -0.00000000000E+00 -0.00000000000E+00 -0.18687191672E+02  0.18687191672E+02  0.00000000000E+00 0.  1.
          4    1    1    2  501    0 -0.16503195275E+01  0.15544528690E+01 -0.14558136305E+02  0.14733608212E+02  0.00000000000E+00 0.  1.
         -4    1    1    2    0  501  0.16503195275E+01 -0.15544528690E+01 -0.37233614810E+01  0.43592773464E+01  0.00000000000E+00 0. -1.
<mgrwt>
<rscale>  0 0.22671300E+01</rscale>
<asrwt>0</asrwt>
<pdfrwt beam="1">0</pdfrwt>
<pdfrwt beam="2">0</pdfrwt>
<totfact> 0.20496932E+12</totfact>
</mgrwt>
</event>
<event>
 4    2  0.2130683E+006  0.2465813E+01  0.7546771E-02  0.2723797E+00
         22   -1    0    0    0    0  0.00000000000E+00  0.00000000000E+00  0.55304133124E+00  0.55304133124E+00  0.00000000000E+00 0.  1.
         22   -1    0    0    0    0 -0.00000000000E+00 -0.00000000000E+00 -0.13368304196E+02  0.13368304196E+02  0.00000000000E+00 0. -1.
          4    1    1    2  501    0 -0.17645070939E+01 -0.17224246137E+01 -0.93409920299E+01  0.96609711695E+01  0.00000000000E+00 0. -1.
         -4    1    1    2    0  501  0.17645070939E+01  0.17224246137E+01 -0.34742708348E+01  0.42603743577E+01  0.00000000000E+00 0.  1.
<mgrwt>
<rscale>  0 0.24658126E+01</rscale>
<asrwt>0</asrwt>
<pdfrwt beam="1">0</pdfrwt>
<pdfrwt beam="2">0</pdfrwt>
<totfact> 0.21842880E+12</totfact>
</mgrwt>
</event>
<event>
 4    2  0.2130683E+006  0.2179181E+01  0.7546771E-02  0.2869444E+00
         22   -1    0    0    0    0  0.00000000000E+00  0.00000000000E+00  0.41248351074E+01  0.41248351074E+01  0.00000000000E+00 0.  1.
         22   -1    0    0    0    0 -0.00000000000E+00 -0.00000000000E+00 -0.11514570808E+01  0.11514570808E+01  0.00000000000E+00 0. -1.
          4    1    1    2  501    0  0.19775637581E+01 -0.91546335962E+00  0.14537813397E+01  0.26196014513E+01  0.00000000000E+00 0.  1.
         -4    1    1    2    0  501 -0.19775637581E+01  0.91546335962E+00  0.15195966869E+01  0.26566907368E+01  0.00000000000E+00 0. -1.
<mgrwt>
<rscale>  0 0.21791814E+01</rscale>
<asrwt>0</asrwt>
<pdfrwt beam="1">0</pdfrwt>
<pdfrwt beam="2">0</pdfrwt>
<totfact> 0.38853354E+12</totfact>
</mgrwt>
</event>
<event>
 4    2  0.2130683E+006  0.9870717E+01  0.7546771E-02  0.1784144E+00
         22   -1    0    0    0    0  0.00000000000E+00  0.00000000000E+00  0.16990258779E+02  0.16990258779E+02  0.00000000000E+00 0. -1.
         22   -1    0    0    0    0 -0.00000000000E+00 -0.00000000000E+00 -0.10819532950E+02  0.10819532950E+02  0.00000000000E+00 0.  1.
          4    1    1    2  501    0  0.76889777036E+01  0.61895612027E+01 -0.64471926725E+01  0.11789713286E+02  0.00000000000E+00 0.  1.
         -4    1    1    2    0  501 -0.76889777036E+01 -0.61895612027E+01  0.12617918501E+02  0.16020078443E+02  0.00000000000E+00 0. -1.
<mgrwt>
<rscale>  0 0.98707166E+01</rscale>
<asrwt>0</asrwt>
<pdfrwt beam="1">0</pdfrwt>
<pdfrwt beam="2">0</pdfrwt>
<totfact> 0.50753459E+10</totfact>
</mgrwt>
</event>
<event>
 4    2  0.2130683E+006  0.3524460E+01  0.7546771E-02  0.2378596E+00
         22   -1    0    0    0    0  0.00000000000E+00  0.00000000000E+00  0.15225328225E+03  0.15225328225E+03  0.00000000000E+00 0.  1.
         22   -1    0    0    0    0 -0.00000000000E+00 -0.00000000000E+00 -0.36042839212E+00  0.36042839212E+00  0.00000000000E+00 0. -1.
          4    1    1    2  501    0  0.28908416020E+01  0.20161478389E+01  0.88293483413E+01  0.95067980629E+01  0.00000000000E+00 0. -1.
         -4    1    1    2    0  501 -0.28908416020E+01 -0.20161478389E+01  0.14306350551E+03  0.14310691258E+03  0.00000000000E+00 0.  1.
<mgrwt>
<rscale>  0 0.35244599E+01</rscale>
<asrwt>0</asrwt>
<pdfrwt beam="1">0</pdfrwt>
<pdfrwt beam="2">0</pdfrwt>
<totfact> 0.14129920E+11</totfact>
</mgrwt>
</event>
<event>
 4    2  0.2130683E+006  0.4505266E+01  0.7546771E-02  0.2190000E+00
         22   -1    0    0    0    0  0.00000000000E+00  0.00000000000E+00  0.16036137360E+01  0.16036137360E+01  0.00000000000E+00 0. -1.
         22   -1    0    0    0    0 -0.00000000000E+00 -0.00000000000E+00 -0.13960863629E+02  0.13960863629E+02  0.00000000000E+00 0.  1.
          4    1    1    2  501    0 -0.28971131894E+01  0.34502401152E+01 -0.85566386938E+01  0.96702371957E+01  0.00000000000E+00 0.  1.
         -4    1    1    2    0  501  0.28971131894E+01 -0.34502401152E+01 -0.38006111991E+01  0.58942401691E+01  0.00000000000E+00 0. -1.
<mgrwt>
<rscale>  0 0.45052660E+01</rscale>
<asrwt>0</asrwt>
<pdfrwt beam="1">0</pdfrwt>
<pdfrwt beam="2">0</pdfrwt>
<totfact> 0.61474309E+11</totfact>
</mgrwt>
</event>
<event>
 4    2  0.2130683E+006  0.3318853E+01  0.7546771E-02  0.2430107E+00
         22   -1    0    0    0    0  0.00000000000E+00  0.00000000000E+00  0.41785265137E+02  0.41785265137E+02  0.00000000000E+00 0.  1.
         22   -1    0    0    0    0 -0.00000000000E+00 -0.00000000000E+00 -0.30713071423E+00  0.30713071423E+00  0.00000000000E+00 0. -1.
          4    1    1    2  501    0  0.55982703019E+00 -0.32712964727E+01  0.12816113550E+02  0.13238865263E+02  0.00000000000E+00 0. -1.
         -4    1    1    2    0  501 -0.55982703019E+00  0.32712964727E+01  0.28662020872E+02  0.28853530588E+02  0.00000000000E+00 0.  1.
<mgrwt>
<rscale>  0 0.33188533E+01</rscale>
<asrwt>0</asrwt>
<pdfrwt beam="1">0</pdfrwt>
<pdfrwt beam="2">0</pdfrwt>
<totfact> 0.10083825E+12</totfact>
</mgrwt>
</event>
<event>
 4    2  0.2130683E+006  0.2272896E+01  0.7546771E-02  0.2817993E+00
         22   -1    0    0    0    0  0.00000000000E+00  0.00000000000E+00  0.13872168145E+02  0.13872168145E+02  0.00000000000E+00 0.  1.
         22   -1    0    0    0    0 -0.00000000000E+00 -0.00000000000E+00 -0.48874865912E+00  0.48874865912E+00  0.00000000000E+00 0. -1.
          4    1    1    2  501    0 -0.21280381031E+01 -0.79844360649E+00  0.31883752598E+01  0.39155836293E+01  0.00000000000E+00 0. -1.
         -4    1    1    2    0  501  0.21280381031E+01  0.79844360649E+00  0.10195044227E+02  0.10445333175E+02  0.00000000000E+00 0.  1.
<mgrwt>
<rscale>  0 0.22728965E+01</rscale>
<asrwt>0</asrwt>
<pdfrwt beam="1">0</pdfrwt>
<pdfrwt beam="2">0</pdfrwt>
<totfact> 0.24002171E+12</totfact>
</mgrwt>
</event>
<event>
 4    2  0.2130683E+006  0.3219429E+01  0.7546771E-02  0.2457079E+00
         22   -1    0    0    0    0  0.00000000000E+00  0.00000000000E+00  0.29470599808E+01  0.29470599808E+01  0.00000000000E+00 0. -1.
         22   -1    0    0    0    0 -0.00000000000E+00 -0.00000000000E+00 -0.35187596483E+01  0.35187596483E+01  0.00000000000E+00 0.  1.
          4    1    1    2  501    0 -0.79510627520E+00 -0.31197002225E+01 -0.21295389973E+00  0.32264644474E+01  0.00000000000E+00 0. -1.
         -4    1    1    2    0  501  0.79510627520E+00  0.31197002225E+01 -0.35874576768E+00  0.32393551817E+01  0.00000000000E+00 0.  1.
<mgrwt>
<rscale>  0 0.32194291E+01</rscale>
<asrwt>0</asrwt>
<pdfrwt beam="1">0</pdfrwt>
<pdfrwt beam="2">0</pdfrwt>
<totfact> 0.15807862E+12</totfact>
</mgrwt>
</event>
<event>
 4    2  0.2130683E+006  0.3913047E+01  0.7546771E-02  0.2294230E+00
         22   -1    0    0    0    0  0.00000000000E+00  0.00000000000E+00  0.44517131612E+01  0.44517131612E+01  0.00000000000E+00 0. -1.
         22   -1    0    0    0    0 -0.00000000000E+00 -0.00000000000E+00 -0.77929267275E+01  0.77929267275E+01  0.00000000000E+00 0.  1.
          4    1    1    2  501    0 -0.38875480228E+00  0.38936881517E+01 -0.62465256550E+01  0.73709579078E+01  0.00000000000E+00 0.  1.
         -4    1    1    2    0  501  0.38875480228E+00 -0.38936881517E+01  0.29053120886E+01  0.48736819810E+01  0.00000000000E+00 0. -1.
<mgrwt>
<rscale>  0 0.39130471E+01</rscale>
<asrwt>0</asrwt>
<pdfrwt beam="1">0</pdfrwt>
<pdfrwt beam="2">0</pdfrwt>
<totfact> 0.37940105E+11</totfact>
</mgrwt>
</event>
<event>
 4    2  0.2130683E+006  0.2537886E+01  0.7546771E-02  0.2692060E+00
         22   -1    0    0    0    0  0.00000000000E+00  0.00000000000E+00  0.21931780303E+00  0.21931780303E+00  0.00000000000E+00 0. -1.
         22   -1    0    0    0    0 -0.00000000000E+00 -0.00000000000E+00 -0.31767573450E+02  0.31767573450E+02  0.00000000000E+00 0.  1.
          4    1    1    2  501    0 -0.18257081576E+01 -0.17628536661E+01 -0.20169975008E+02  0.20329012646E+02  0.00000000000E+00 0.  1.
         -4    1    1    2    0  501  0.18257081576E+01  0.17628536661E+01 -0.11378280639E+02  0.11657878607E+02  0.00000000000E+00 0. -1.
<mgrwt>
<rscale>  0 0.25378856E+01</rscale>
<asrwt>0</asrwt>
<pdfrwt beam="1">0</pdfrwt>
<pdfrwt beam="2">0</pdfrwt>
<totfact> 0.20933638E+12</totfact>
</mgrwt>
</event>
<event>
 4    2  0.2130683E+006  0.2856216E+01  0.7546771E-02  0.2569667E+00
         22   -1    0    0    0    0  0.00000000000E+00  0.00000000000E+00  0.84277345512E+00  0.84277345512E+00  0.00000000000E+00 0. -1.
         22   -1    0    0    0    0 -0.00000000000E+00 -0.00000000000E+00 -0.34511269054E+02  0.34511269054E+02  0.00000000000E+00 0.  1.
          4    1    1    2  501    0  0.31595712061E+00  0.28386863858E+01 -0.31828640608E+02  0.31956538177E+02  0.00000000000E+00 0.  1.
         -4    1    1    2    0  501 -0.31595712061E+00 -0.28386863858E+01 -0.18398549907E+01  0.33975043320E+01  0.00000000000E+00 0. -1.
<mgrwt>
<rscale>  0 0.28562159E+01</rscale>
<asrwt>0</asrwt>
<pdfrwt beam="1">0</pdfrwt>
<pdfrwt beam="2">0</pdfrwt>
<totfact> 0.41285627E+11</totfact>
</mgrwt>
</event>
<event>
 4    2  0.2130683E+006  0.2038005E+01  0.7546771E-02  0.2955535E+00
         22   -1    0    0    0    0  0.00000000000E+00  0.00000000000E+00  0.74699516143E+02  0.74699516143E+02  0.00000000000E+00 0. -1.
         22   -1    0    0    0    0 -0.00000000000E+00 -0.00000000000E+00 -0.10358380836E+00  0.10358380836E+00  0.00000000000E+00 0.  1.
          4    1    1    2  501    0 -0.19417442353E+01  0.61894481286E+00  0.11842520475E+02  0.12016603287E+02  0.00000000000E+00 0.  1.
         -4    1    1    2    0  501  0.19417442353E+01 -0.61894481286E+00  0.62753411860E+02  0.62786496664E+02  0.00000000000E+00 0. -1.
<mgrwt>
<rscale>  0 0.20380047E+01</rscale>
<asrwt>0</asrwt>
<pdfrwt beam="1">0</pdfrwt>
<pdfrwt beam="2">0</pdfrwt>
<totfact> 0.15616030E+12</totfact>
</mgrwt>
</event>
<event>
 4    2  0.2130683E+006  0.2841458E+01  0.7546771E-02  0.2574786E+00
         22   -1    0    0    0    0  0.00000000000E+00  0.00000000000E+00  0.20087087167E+02  0.20087087167E+02  0.00000000000E+00 0. -1.
         22   -1    0    0    0    0 -0.00000000000E+00 -0.00000000000E+00 -0.99624629593E+00  0.99624629593E+00  0.00000000000E+00 0.  1.
          4    1    1    2  501    0  0.14316237696E+01  0.24544526963E+01  0.14034481947E+01  0.31691562744E+01  0.00000000000E+00 0.  1.
         -4    1    1    2    0  501 -0.14316237696E+01 -0.24544526963E+01  0.17687392676E+02  0.17914177189E+02  0.00000000000E+00 0. -1.
<mgrwt>
<rscale>  0 0.28414582E+01</rscale>
<asrwt>0</asrwt>
<pdfrwt beam="1">0</pdfrwt>
<pdfrwt beam="2">0</pdfrwt>
<totfact> 0.67666996E+11</totfact>
</mgrwt>
</event>
<event>
 4    2  0.2130683E+006  0.2092932E+01  0.7546771E-02  0.2920702E+00
         22   -1    0    0    0    0  0.00000000000E+00  0.00000000000E+00  0.55567316993E+02  0.55567316993E+02  0.00000000000E+00 0. -1.
         22   -1    0    0    0    0 -0.00000000000E+00 -0.00000000000E+00 -0.12849196560E+00  0.12849196560E+00  0.00000000000E+00 0.  1.
          4    1    1    2  501    0  0.91438023026E+00  0.18826238634E+01  0.10406621008E+02  0.10614995272E+02  0.00000000000E+00 0.  1.
         -4    1    1    2    0  501 -0.91438023026E+00 -0.18826238634E+01  0.45032204019E+02  0.45080813687E+02  0.00000000000E+00 0. -1.
<mgrwt>
<rscale>  0 0.20929319E+01</rscale>
<asrwt>0</asrwt>
<pdfrwt beam="1">0</pdfrwt>
<pdfrwt beam="2">0</pdfrwt>
<totfact> 0.18319496E+12</totfact>
</mgrwt>
</event>
<event>
 4    2  0.2130683E+006  0.2467099E+01  0.7546771E-02  0.2723215E+00
         22   -1    0    0    0    0  0.00000000000E+00  0.00000000000E+00  0.21554555639E+02  0.21554555639E+02  0.00000000000E+00 0.  1.
         22   -1    0    0    0    0 -0.00000000000E+00 -0.00000000000E+00 -0.29016935965E+00  0.29016935965E+00  0.00000000000E+00 0. -1.
          4    1    1    2  501    0  0.15876494247E+01  0.18883708407E+01  0.88426504274E+01  0.91803617418E+01  0.00000000000E+00 0. -1.
         -4    1    1    2    0  501 -0.15876494247E+01 -0.18883708407E+01  0.12421735852E+02  0.12664363257E+02  0.00000000000E+00 0.  1.
<mgrwt>
<rscale>  0 0.24670985E+01</rscale>
<asrwt>0</asrwt>
<pdfrwt beam="1">0</pdfrwt>
<pdfrwt beam="2">0</pdfrwt>
<totfact> 0.24995749E+12</totfact>
</mgrwt>
</event>
<event>
 4    2  0.2130683E+006  0.2000300E+01  0.7546771E-02  0.2980527E+00
         22   -1    0    0    0    0  0.00000000000E+00  0.00000000000E+00  0.83257374658E+01  0.83257374658E+01  0.00000000000E+00 0. -1.
         22   -1    0    0    0    0 -0.00000000000E+00 -0.00000000000E+00 -0.10830228742E+01  0.10830228742E+01  0.00000000000E+00 0.  1.
          4    1    1    2  501    0 -0.19900670791E+01 -0.20206984895E+00  0.11270100565E+00  0.20034721660E+01  0.00000000000E+00 0.  1.
         -4    1    1    2    0  501  0.19900670791E+01  0.20206984895E+00  0.71300135860E+01  0.74052881739E+01  0.00000000000E+00 0. -1.
<mgrwt>
<rscale>  0 0.20002998E+01</rscale>
<asrwt>0</asrwt>
<pdfrwt beam="1">0</pdfrwt>
<pdfrwt beam="2">0</pdfrwt>
<totfact> 0.18069121E+12</totfact>
</mgrwt>
</event>
<event>
 4    2  0.2130683E+006  0.2686712E+01  0.7546771E-02  0.2631530E+00
         22   -1    0    0    0    0  0.00000000000E+00  0.00000000000E+00  0.98345830585E+00  0.98345830585E+00  0.00000000000E+00 0. -1.
         22   -1    0    0    0    0 -0.00000000000E+00 -0.00000000000E+00 -0.82133377939E+01  0.82133377939E+01  0.00000000000E+00 0.  1.
          4    1    1    2  501    0  0.26716400265E+01  0.28418616340E+00 -0.21153283221E+01  0.34195081689E+01  0.00000000000E+00 0. -1.
         -4    1    1    2    0  501 -0.26716400265E+01 -0.28418616340E+00 -0.51145511660E+01  0.57772879309E+01  0.00000000000E+00 0.  1.
<mgrwt>
<rscale>  0 0.26867122E+01</rscale>
<asrwt>0</asrwt>
<pdfrwt beam="1">0</pdfrwt>
<pdfrwt beam="2">0</pdfrwt>
<totfact> 0.20508772E+12</totfact>
</mgrwt>
</event>
<event>
 4    2  0.2130683E+006  0.2140179E+01  0.7546771E-02  0.2892129E+00
         22   -1    0    0    0    0  0.00000000000E+00  0.00000000000E+00  0.33746855051E+01  0.33746855051E+01  0.00000000000E+00 0. -1.
         22   -1    0    0    0    0 -0.00000000000E+00 -0.00000000000E+00 -0.15704947063E+01  0.15704947063E+01  0.00000000000E+00 0.  1.
          4    1    1    2  501    0  0.20809710948E+01 -0.49992361902E+00 -0.89733798012E-02  0.21401973843E+01  0.00000000000E+00 0.  1.
         -4    1    1    2    0  501 -0.20809710948E+01  0.49992361902E+00  0.18131641786E+01  0.28049828271E+01  0.00000000000E+00 0. -1.
<mgrwt>
<rscale>  0 0.21401786E+01</rscale>
<asrwt>0</asrwt>
<pdfrwt beam="1">0</pdfrwt>
<pdfrwt beam="2">0</pdfrwt>
<totfact> 0.34439188E+12</totfact>
</mgrwt>
</event>
<event>
 4    2  0.2130683E+006  0.3582068E+01  0.7546771E-02  0.2365092E+00
         22   -1    0    0    0    0  0.00000000000E+00  0.00000000000E+00  0.82047338747E+00  0.82047338747E+00  0.00000000000E+00 0. -1.
         22   -1    0    0    0    0 -0.00000000000E+00 -0.00000000000E+00 -0.16626306019E+02  0.16626306019E+02  0.00000000000E+00 0.  1.
          4    1    1    2  501    0 -0.34783687763E+01 -0.85566412461E+00 -0.10028898479E+02  0.10649413840E+02  0.00000000000E+00 0. -1.
         -4    1    1    2    0  501  0.34783687763E+01  0.85566412461E+00 -0.57769341526E+01  0.67973655663E+01  0.00000000000E+00 0.  1.
<mgrwt>
<rscale>  0 0.35820679E+01</rscale>
<asrwt>0</asrwt>
<pdfrwt beam="1">0</pdfrwt>
<pdfrwt beam="2">0</pdfrwt>
<totfact> 0.10676974E+12</totfact>
</mgrwt>
</event>
<event>
 4    2  0.2130683E+006  0.2316625E+01  0.7546771E-02  0.2795344E+00
         22   -1    0    0    0    0  0.00000000000E+00  0.00000000000E+00  0.67047061357E+00  0.67047061357E+00  0.00000000000E+00 0. -1.
         22   -1    0    0    0    0 -0.00000000000E+00 -0.00000000000E+00 -0.99798037646E+01  0.99798037646E+01  0.00000000000E+00 0.  1.
          4    1    1    2  501    0 -0.19041316109E+01  0.13194830874E+01 -0.70238109981E+01  0.73959903830E+01  0.00000000000E+00 0.  1.
         -4    1    1    2    0  501  0.19041316109E+01 -0.13194830874E+01 -0.22855221529E+01  0.32542839951E+01  0.00000000000E+00 0. -1.
<mgrwt>
<rscale>  0 0.23166253E+01</rscale>
<asrwt>0</asrwt>
<pdfrwt beam="1">0</pdfrwt>
<pdfrwt beam="2">0</pdfrwt>
<totfact> 0.25070739E+12</totfact>
</mgrwt>
</event>
<event>
 4    2  0.2130683E+006  0.4162335E+01  0.7546771E-02  0.2247298E+00
         22   -1    0    0    0    0  0.00000000000E+00  0.00000000000E+00  0.68115158464E+01  0.68115158464E+01  0.00000000000E+00 0. -1.
         22   -1    0    0    0    0 -0.00000000000E+00 -0.00000000000E+00 -0.27401464548E+01  0.27401464548E+01  0.00000000000E+00 0.  1.
          4    1    1    2  501    0  0.58886837856E+00 -0.41204693517E+01  0.75626108054E+00  0.42304804062E+01  0.00000000000E+00 0.  1.
         -4    1    1    2    0  501 -0.58886837856E+00  0.41204693517E+01  0.33151083111E+01  0.53211818950E+01  0.00000000000E+00 0. -1.
<mgrwt>
<rscale>  0 0.41623351E+01</rscale>
<asrwt>0</asrwt>
<pdfrwt beam="1">0</pdfrwt>
<pdfrwt beam="2">0</pdfrwt>
<totfact> 0.78752463E+11</totfact>
</mgrwt>
</event>
<event>
 4    2  0.2130683E+006  0.2845407E+01  0.7546771E-02  0.2573412E+00
         22   -1    0    0    0    0  0.00000000000E+00  0.00000000000E+00  0.92655437088E+01  0.92655437088E+01  0.00000000000E+00 0. -1.
         22   -1    0    0    0    0 -0.00000000000E+00 -0.00000000000E+00 -0.27865075881E+01  0.27865075881E+01  0.00000000000E+00 0.  1.
          4    1    1    2  501    0  0.55891869404E+00  0.27899731034E+01 -0.17530480998E+01  0.33420828333E+01  0.00000000000E+00 0.  1.
         -4    1    1    2    0  501 -0.55891869404E+00 -0.27899731034E+01  0.82320842204E+01  0.87099684636E+01  0.00000000000E+00 0. -1.
<mgrwt>
<rscale>  0 0.28454068E+01</rscale>
<asrwt>0</asrwt>
<pdfrwt beam="1">0</pdfrwt>
<pdfrwt beam="2">0</pdfrwt>
<totfact> 0.53364312E+11</totfact>
</mgrwt>
</event>
<event>
 4    2  0.2130683E+006  0.2386968E+01  0.7546771E-02  0.2760561E+00
         22   -1    0    0    0    0  0.00000000000E+00  0.00000000000E+00  0.12185763076E+02  0.12185763076E+02  0.00000000000E+00 0. -1.
         22   -1    0    0    0    0 -0.00000000000E+00 -0.00000000000E+00 -0.46771344348E+00  0.46771344348E+00  0.00000000000E+00 0.  1.
          4    1    1    2  501    0  0.17351632932E+01 -0.16391541108E+01  0.57457390860E+01  0.62218273439E+01  0.00000000000E+00 0.  1.
         -4    1    1    2    0  501 -0.17351632932E+01  0.16391541108E+01  0.59723105462E+01  0.64316491752E+01  0.00000000000E+00 0. -1.
<mgrwt>
<rscale>  0 0.23869683E+01</rscale>
<asrwt>0</asrwt>
<pdfrwt beam="1">0</pdfrwt>
<pdfrwt beam="2">0</pdfrwt>
<totfact> 0.29558217E+12</totfact>
</mgrwt>
</event>
<event>
 4    2  0.2130683E+006  0.2040141E+01  0.7546771E-02  0.2954146E+00
         22   -1    0    0    0    0  0.00000000000E+00  0.00000000000E+00  0.33751699517E-01  0.33751699517E-01  0.00000000000E+00 0.  1.
         22   -1    0    0    0    0 -0.00000000000E+00 -0.00000000000E+00 -0.13805690658E+03  0.13805690658E+03  0.00000000000E+00 0. -1.
          4    1    1    2  501    0 -0.20395201892E+01  0.50327030601E-01 -0.91571891662E+02  0.91594615114E+02  0.00000000000E+00 0. -1.
         -4    1    1    2    0  501  0.20395201892E+01 -0.50327030601E-01 -0.46451263219E+02  0.46496043166E+02  0.00000000000E+00 0.  1.
<mgrwt>
<rscale>  0 0.20401410E+01</rscale>
<asrwt>0</asrwt>
<pdfrwt beam="1">0</pdfrwt>
<pdfrwt beam="2">0</pdfrwt>
<totfact> 0.22553875E+12</totfact>
</mgrwt>
</event>
<event>
 4    2  0.2130683E+006  0.2318261E+01  0.7546771E-02  0.2794513E+00
         22   -1    0    0    0    0  0.00000000000E+00  0.00000000000E+00  0.47666912055E+01  0.47666912055E+01  0.00000000000E+00 0. -1.
         22   -1    0    0    0    0 -0.00000000000E+00 -0.00000000000E+00 -0.15289284691E+02  0.15289284691E+02  0.00000000000E+00 0.  1.
          4    1    1    2  501    0  0.22001023299E+01 -0.73067435251E+00 -0.14912457822E+02  0.15091578233E+02  0.00000000000E+00 0.  1.
         -4    1    1    2    0  501 -0.22001023299E+01  0.73067435251E+00  0.43898643363E+01  0.49643976636E+01  0.00000000000E+00 0. -1.
<mgrwt>
<rscale>  0 0.23182613E+01</rscale>
<asrwt>0</asrwt>
<pdfrwt beam="1">0</pdfrwt>
<pdfrwt beam="2">0</pdfrwt>
<totfact> 0.15428289E+11</totfact>
</mgrwt>
</event>
<event>
 4    2  0.2130683E+006  0.2529801E+01  0.7546771E-02  0.2695536E+00
         22   -1    0    0    0    0  0.00000000000E+00  0.00000000000E+00  0.60131371710E+00  0.60131371710E+00  0.00000000000E+00 0. -1.
         22   -1    0    0    0    0 -0.00000000000E+00 -0.00000000000E+00 -0.10654152803E+02  0.10654152803E+02  0.00000000000E+00 0.  1.
          4    1    1    2  501    0  0.16956008354E+00  0.25241117518E+01 -0.52070172010E+01  0.57890343658E+01  0.00000000000E+00 0.  1.
         -4    1    1    2    0  501 -0.16956008354E+00 -0.25241117518E+01 -0.48458218853E+01  0.54664321547E+01  0.00000000000E+00 0. -1.
<mgrwt>
<rscale>  0 0.25298005E+01</rscale>
<asrwt>0</asrwt>
<pdfrwt beam="1">0</pdfrwt>
<pdfrwt beam="2">0</pdfrwt>
<totfact> 0.26202078E+12</totfact>
</mgrwt>
</event>
<event>
 4    2  0.2130683E+006  0.2200204E+01  0.7546771E-02  0.2857538E+00
         22   -1    0    0    0    0  0.00000000000E+00  0.00000000000E+00  0.16395138846E+01  0.16395138846E+01  0.00000000000E+00 0. -1.
         22   -1    0    0    0    0 -0.00000000000E+00 -0.00000000000E+00 -0.34942775790E+01  0.34942775790E+01  0.00000000000E+00 0.  1.
          4    1    1    2  501    0  0.21858154114E+01  0.25121237151E+00 -0.19379912536E+01  0.29320141145E+01  0.00000000000E+00 0.  1.
         -4    1    1    2    0  501 -0.21858154114E+01 -0.25121237151E+00  0.83227559251E-01  0.22017773491E+01  0.00000000000E+00 0. -1.
<mgrwt>
<rscale>  0 0.22002038E+01</rscale>
<asrwt>0</asrwt>
<pdfrwt beam="1">0</pdfrwt>
<pdfrwt beam="2">0</pdfrwt>
<totfact> 0.31463745E+12</totfact>
</mgrwt>
</event>
<event>
 4    2  0.2130683E+006  0.2256199E+01  0.7546771E-02  0.2826861E+00
         22   -1    0    0    0    0  0.00000000000E+00  0.00000000000E+00  0.27205280879E+00  0.27205280879E+00  0.00000000000E+00 0.  1.
         22   -1    0    0    0    0 -0.00000000000E+00 -0.00000000000E+00 -0.25304780887E+02  0.25304780887E+02  0.00000000000E+00 0. -1.
          4    1    1    2  501    0 -0.33904263981E+00 -0.22305792893E+01 -0.19044305328E+02  0.19177486783E+02  0.00000000000E+00 0.  1.
         -4    1    1    2    0  501  0.33904263981E+00  0.22305792893E+01 -0.59884227498E+01  0.63993469126E+01  0.00000000000E+00 0. -1.
<mgrwt>
<rscale>  0 0.22561990E+01</rscale>
<asrwt>0</asrwt>
<pdfrwt beam="1">0</pdfrwt>
<pdfrwt beam="2">0</pdfrwt>
<totfact> 0.21961573E+12</totfact>
</mgrwt>
</event>
<event>
 4    2  0.2130683E+006  0.2118868E+01  0.7546771E-02  0.2904864E+00
         22   -1    0    0    0    0  0.00000000000E+00  0.00000000000E+00  0.31917280235E+01  0.31917280235E+01  0.00000000000E+00 0. -1.
         22   -1    0    0    0    0 -0.00000000000E+00 -0.00000000000E+00 -0.19650733389E+01  0.19650733389E+01  0.00000000000E+00 0.  1.
          4    1    1    2  501    0  0.57021423479E+00 -0.20407000968E+01 -0.76118312923E+00  0.22514441843E+01  0.00000000000E+00 0.  1.
         -4    1    1    2    0  501 -0.57021423479E+00  0.20407000968E+01  0.19878378138E+01  0.29053571782E+01  0.00000000000E+00 0. -1.
<mgrwt>
<rscale>  0 0.21188679E+01</rscale>
<asrwt>0</asrwt>
<pdfrwt beam="1">0</pdfrwt>
<pdfrwt beam="2">0</pdfrwt>
<totfact> 0.28381010E+12</totfact>
</mgrwt>
</event>
<event>
 4    2  0.2130683E+006  0.4842127E+01  0.7546771E-02  0.2142333E+00
         22   -1    0    0    0    0  0.00000000000E+00  0.00000000000E+00  0.32672136809E+02  0.32672136809E+02  0.00000000000E+00 0. -1.
         22   -1    0    0    0    0 -0.00000000000E+00 -0.00000000000E+00 -0.11907402008E+01  0.11907402008E+01  0.00000000000E+00 0.  1.
          4    1    1    2  501    0  0.42523470277E+01 -0.23159753104E+01  0.50680833448E+01  0.70093983816E+01  0.00000000000E+00 0.  1.
         -4    1    1    2    0  501 -0.42523470277E+01  0.23159753104E+01  0.26413313264E+02  0.26853478628E+02  0.00000000000E+00 0. -1.
<mgrwt>
<rscale>  0 0.48421273E+01</rscale>
<asrwt>0</asrwt>
<pdfrwt beam="1">0</pdfrwt>
<pdfrwt beam="2">0</pdfrwt>
<totfact> 0.29846815E+11</totfact>
</mgrwt>
</event>
<event>
 4    2  0.2130683E+006  0.2731804E+01  0.7546771E-02  0.2614391E+00
         22   -1    0    0    0    0  0.00000000000E+00  0.00000000000E+00  0.12056357874E+00  0.12056357874E+00  0.00000000000E+00 0.  1.
         22   -1    0    0    0    0 -0.00000000000E+00 -0.00000000000E+00 -0.62445905450E+02  0.62445905450E+02  0.00000000000E+00 0. -1.
          4    1    1    2  501    0  0.14178214869E+01  0.23350666983E+01 -0.34090535941E+02  0.34199815716E+02  0.00000000000E+00 0.  1.
         -4    1    1    2    0  501 -0.14178214869E+01 -0.23350666983E+01 -0.28234805930E+02  0.28366653313E+02  0.00000000000E+00 0. -1.
<mgrwt>
<rscale>  0 0.27318042E+01</rscale>
<asrwt>0</asrwt>
<pdfrwt beam="1">0</pdfrwt>
<pdfrwt beam="2">0</pdfrwt>
<totfact> 0.16823381E+12</totfact>
</mgrwt>
</event>
<event>
 4    2  0.2130683E+006  0.2670957E+01  0.7546771E-02  0.2637644E+00
         22   -1    0    0    0    0  0.00000000000E+00  0.00000000000E+00  0.17626289004E+01  0.17626289004E+01  0.00000000000E+00 0.  1.
         22   -1    0    0    0    0 -0.00000000000E+00 -0.00000000000E+00 -0.40663181282E+01  0.40663181282E+01  0.00000000000E+00 0. -1.
          4    1    1    2  501    0 -0.19663982505E+01 -0.18075648411E+01 -0.13507898209E+01  0.29930997101E+01  0.00000000000E+00 0.  1.
         -4    1    1    2    0  501  0.19663982505E+01  0.18075648411E+01 -0.95289940689E+00  0.28358473185E+01  0.00000000000E+00 0. -1.
<mgrwt>
<rscale>  0 0.26709573E+01</rscale>
<asrwt>0</asrwt>
<pdfrwt beam="1">0</pdfrwt>
<pdfrwt beam="2">0</pdfrwt>
<totfact> 0.24221251E+12</totfact>
</mgrwt>
</event>
<event>
 4    2  0.2130683E+006  0.2070321E+01  0.7546771E-02  0.2934823E+00
         22   -1    0    0    0    0  0.00000000000E+00  0.00000000000E+00  0.99649036311E-01  0.99649036311E-01  0.00000000000E+00 0.  1.
         22   -1    0    0    0    0 -0.00000000000E+00 -0.00000000000E+00 -0.45887905492E+02  0.45887905492E+02  0.00000000000E+00 0. -1.
          4    1    1    2  501    0  0.70514536594E+00 -0.19465349256E+01 -0.28649251643E+02  0.28723959474E+02  0.00000000000E+00 0. -1.
         -4    1    1    2    0  501 -0.70514536594E+00  0.19465349256E+01 -0.17139004813E+02  0.17263595054E+02  0.00000000000E+00 0.  1.
<mgrwt>
<rscale>  0 0.20703208E+01</rscale>
<asrwt>0</asrwt>
<pdfrwt beam="1">0</pdfrwt>
<pdfrwt beam="2">0</pdfrwt>
<totfact> 0.31261069E+12</totfact>
</mgrwt>
</event>
<event>
 4    2  0.2130683E+006  0.2021595E+01  0.7546771E-02  0.2966299E+00
         22   -1    0    0    0    0  0.00000000000E+00  0.00000000000E+00  0.15219621611E+01  0.15219621611E+01  0.00000000000E+00 0.  1.
         22   -1    0    0    0    0 -0.00000000000E+00 -0.00000000000E+00 -0.33722489348E+01  0.33722489348E+01  0.00000000000E+00 0. -1.
          4    1    1    2  501    0  0.45540838026E+00  0.19696317254E+01 -0.20296581789E+01  0.28646741961E+01  0.00000000000E+00 0. -1.
         -4    1    1    2    0  501 -0.45540838026E+00 -0.19696317254E+01  0.17937140526E+00  0.20295368998E+01  0.00000000000E+00 0.  1.
<mgrwt>
<rscale>  0 0.20215949E+01</rscale>
<asrwt>0</asrwt>
<pdfrwt beam="1">0</pdfrwt>
<pdfrwt beam="2">0</pdfrwt>
<totfact> 0.35735573E+12</totfact>
</mgrwt>
</event>
<event>
 4    2  0.2130683E+006  0.4347427E+01  0.7546771E-02  0.2215426E+00
         22   -1    0    0    0    0  0.00000000000E+00  0.00000000000E+00  0.40011717939E+01  0.40011717939E+01  0.00000000000E+00 0. -1.
         22   -1    0    0    0    0 -0.00000000000E+00 -0.00000000000E+00 -0.90755578006E+01  0.90755578006E+01  0.00000000000E+00 0.  1.
          4    1    1    2  501    0 -0.43471389736E+01 -0.50001216672E-01 -0.70648398893E+01  0.82953046984E+01  0.00000000000E+00 0.  1.
         -4    1    1    2    0  501  0.43471389736E+01  0.50001216672E-01  0.19904538827E+01  0.47814248960E+01  0.00000000000E+00 0. -1.
<mgrwt>
<rscale>  0 0.43474265E+01</rscale>
<asrwt>0</asrwt>
<pdfrwt beam="1">0</pdfrwt>
<pdfrwt beam="2">0</pdfrwt>
<totfact> 0.35815420E+11</totfact>
</mgrwt>
</event>
<event>
 4    2  0.2130683E+006  0.2432302E+01  0.7546771E-02  0.2739150E+00
         22   -1    0    0    0    0  0.00000000000E+00  0.00000000000E+00  0.48343259203E+00  0.48343259203E+00  0.00000000000E+00 0. -1.
         22   -1    0    0    0    0 -0.00000000000E+00 -0.00000000000E+00 -0.39018723280E+02  0.39018723280E+02  0.00000000000E+00 0.  1.
          4    1    1    2  501    0  0.10528575994E+01 -0.21926206654E+01 -0.35630836419E+02  0.35713759231E+02  0.00000000000E+00 0.  1.
         -4    1    1    2    0  501 -0.10528575994E+01  0.21926206654E+01 -0.29044542685E+01  0.37883966403E+01  0.00000000000E+00 0. -1.
<mgrwt>
<rscale>  0 0.24323023E+01</rscale>
<asrwt>0</asrwt>
<pdfrwt beam="1">0</pdfrwt>
<pdfrwt beam="2">0</pdfrwt>
<totfact> 0.66159457E+11</totfact>
</mgrwt>
</event>
<event>
 4    2  0.2130683E+006  0.3745945E+01  0.7546771E-02  0.2328658E+00
         22   -1    0    0    0    0  0.00000000000E+00  0.00000000000E+00  0.10158037815E+02  0.10158037815E+02  0.00000000000E+00 0.  1.
         22   -1    0    0    0    0 -0.00000000000E+00 -0.00000000000E+00 -0.26141370174E+01  0.26141370174E+01  0.00000000000E+00 0. -1.
          4    1    1    2  501    0  0.36395098555E+01 -0.88660523296E+00 -0.61345342750E+00  0.37958432443E+01  0.00000000000E+00 0. -1.
         -4    1    1    2    0  501 -0.36395098555E+01  0.88660523296E+00  0.81573542255E+01  0.89763315885E+01  0.00000000000E+00 0.  1.
<mgrwt>
<rscale>  0 0.37459446E+01</rscale>
<asrwt>0</asrwt>
<pdfrwt beam="1">0</pdfrwt>
<pdfrwt beam="2">0</pdfrwt>
<totfact> 0.51435359E+11</totfact>
</mgrwt>
</event>
<event>
 4    2  0.2130683E+006  0.2069943E+01  0.7546771E-02  0.2935061E+00
         22   -1    0    0    0    0  0.00000000000E+00  0.00000000000E+00  0.81723717427E+01  0.81723717427E+01  0.00000000000E+00 0. -1.
         22   -1    0    0    0    0 -0.00000000000E+00 -0.00000000000E+00 -0.72585981116E+00  0.72585981116E+00  0.00000000000E+00 0.  1.
          4    1    1    2  501    0 -0.18919616943E+01 -0.83972935380E+00  0.13786826820E+01  0.24870525483E+01  0.00000000000E+00 0.  1.
         -4    1    1    2    0  501  0.18919616943E+01  0.83972935380E+00  0.60678292496E+01  0.64111790056E+01  0.00000000000E+00 0. -1.
<mgrwt>
<rscale>  0 0.20699431E+01</rscale>
<asrwt>0</asrwt>
<pdfrwt beam="1">0</pdfrwt>
<pdfrwt beam="2">0</pdfrwt>
<totfact> 0.29154609E+12</totfact>
</mgrwt>
</event>
<event>
 4    2  0.2130683E+006  0.2001140E+01  0.7546771E-02  0.2979960E+00
         22   -1    0    0    0    0  0.00000000000E+00  0.00000000000E+00  0.33050025869E+01  0.33050025869E+01  0.00000000000E+00 0.  1.
         22   -1    0    0    0    0 -0.00000000000E+00 -0.00000000000E+00 -0.16759972905E+02  0.16759972905E+02  0.00000000000E+00 0. -1.
          4    1    1    2  501    0  0.13491596830E+01 -0.14779475077E+01 -0.16390519614E+02  0.16512228617E+02  0.00000000000E+00 0. -1.
         -4    1    1    2    0  501 -0.13491596830E+01  0.14779475077E+01  0.29355492960E+01  0.35527468746E+01  0.00000000000E+00 0.  1.
<mgrwt>
<rscale>  0 0.20011398E+01</rscale>
<asrwt>0</asrwt>
<pdfrwt beam="1">0</pdfrwt>
<pdfrwt beam="2">0</pdfrwt>
<totfact> 0.21192350E+11</totfact>
</mgrwt>
</event>
<event>
 4    2  0.2130683E+006  0.3984438E+01  0.7546771E-02  0.2280279E+00
         22   -1    0    0    0    0  0.00000000000E+00  0.00000000000E+00  0.18655069635E+03  0.18655069635E+03  0.00000000000E+00 0.  1.
         22   -1    0    0    0    0 -0.00000000000E+00 -0.00000000000E+00 -0.12246805563E+00  0.12246805563E+00  0.00000000000E+00 0. -1.
          4    1    1    2  501    0 -0.14393634704E+01  0.37153705920E+01  0.41657788095E+02  0.41847903828E+02  0.00000000000E+00 0. -1.
         -4    1    1    2    0  501  0.14393634704E+01 -0.37153705920E+01  0.14477044020E+03  0.14482526058E+03  0.00000000000E+00 0.  1.
<mgrwt>
<rscale>  0 0.39844380E+01</rscale>
<asrwt>0</asrwt>
<pdfrwt beam="1">0</pdfrwt>
<pdfrwt beam="2">0</pdfrwt>
<totfact> 0.34671628E+11</totfact>
</mgrwt>
</event>
<event>
 4    2  0.2130683E+006  0.2146336E+01  0.7546771E-02  0.2888495E+00
         22   -1    0    0    0    0  0.00000000000E+00  0.00000000000E+00  0.14929449578E+02  0.14929449578E+02  0.00000000000E+00 0.  1.
         22   -1    0    0    0    0 -0.00000000000E+00 -0.00000000000E+00 -0.30906870094E+01  0.30906870094E+01  0.00000000000E+00 0. -1.
          4    1    1    2  501    0 -0.16796178678E+01 -0.13362793429E+01 -0.26290884428E+01  0.33939453007E+01  0.00000000000E+00 0. -1.
         -4    1    1    2    0  501  0.16796178678E+01  0.13362793429E+01  0.14467851011E+02  0.14626191286E+02  0.00000000000E+00 0.  1.
<mgrwt>
<rscale>  0 0.21463361E+01</rscale>
<asrwt>0</asrwt>
<pdfrwt beam="1">0</pdfrwt>
<pdfrwt beam="2">0</pdfrwt>
<totfact> 0.26437953E+11</totfact>
</mgrwt>
</event>
<event>
 4    2  0.2130683E+006  0.2236844E+01  0.7546771E-02  0.2837299E+00
         22   -1    0    0    0    0  0.00000000000E+00  0.00000000000E+00  0.35233067426E+00  0.35233067426E+00  0.00000000000E+00 0. -1.
         22   -1    0    0    0    0 -0.00000000000E+00 -0.00000000000E+00 -0.22441771667E+02  0.22441771667E+02  0.00000000000E+00 0.  1.
          4    1    1    2  501    0 -0.17065152034E+01 -0.14461245241E+01 -0.17951032521E+02  0.18089860111E+02  0.00000000000E+00 0.  1.
         -4    1    1    2    0  501  0.17065152034E+01  0.14461245241E+01 -0.41384084718E+01  0.47042422299E+01  0.00000000000E+00 0. -1.
<mgrwt>
<rscale>  0 0.22368438E+01</rscale>
<asrwt>0</asrwt>
<pdfrwt beam="1">0</pdfrwt>
<pdfrwt beam="2">0</pdfrwt>
<totfact> 0.19111905E+12</totfact>
</mgrwt>
</event>
<event>
 4    2  0.2130683E+006  0.3028805E+01  0.7546771E-02  0.2513155E+00
         22   -1    0    0    0    0  0.00000000000E+00  0.00000000000E+00  0.97006026556E-01  0.97006026556E-01  0.00000000000E+00 0.  1.
         22   -1    0    0    0    0 -0.00000000000E+00 -0.00000000000E+00 -0.11778214358E+03  0.11778214358E+03  0.00000000000E+00 0. -1.
          4    1    1    2  501    0  0.26983664819E+01 -0.13756736549E+01 -0.85008982674E+02  0.85062922563E+02  0.00000000000E+00 0. -1.
         -4    1    1    2    0  501 -0.26983664819E+01  0.13756736549E+01 -0.32676154881E+02  0.32816227045E+02  0.00000000000E+00 0.  1.
<mgrwt>
<rscale>  0 0.30288050E+01</rscale>
<asrwt>0</asrwt>
<pdfrwt beam="1">0</pdfrwt>
<pdfrwt beam="2">0</pdfrwt>
<totfact> 0.88833746E+11</totfact>
</mgrwt>
</event>
<event>
 4    2  0.2130683E+006  0.2921075E+01  0.7546771E-02  0.2547725E+00
         22   -1    0    0    0    0  0.00000000000E+00  0.00000000000E+00  0.21408426869E+00  0.21408426869E+00  0.00000000000E+00 0.  1.
         22   -1    0    0    0    0 -0.00000000000E+00 -0.00000000000E+00 -0.40003856767E+02  0.40003856767E+02  0.00000000000E+00 0. -1.
          4    1    1    2  501    0  0.27741577134E+01  0.91472909063E+00 -0.21114753896E+02  0.21315851201E+02  0.00000000000E+00 0. -1.
         -4    1    1    2    0  501 -0.27741577134E+01 -0.91472909063E+00 -0.18675018602E+02  0.18902089835E+02  0.00000000000E+00 0.  1.
<mgrwt>
<rscale>  0 0.29210752E+01</rscale>
<asrwt>0</asrwt>
<pdfrwt beam="1">0</pdfrwt>
<pdfrwt beam="2">0</pdfrwt>
<totfact> 0.15981005E+12</totfact>
</mgrwt>
</event>
<event>
 4    2  0.2130683E+006  0.4450942E+01  0.7546771E-02  0.2198580E+00
         22   -1    0    0    0    0  0.00000000000E+00  0.00000000000E+00  0.24926632601E+02  0.24926632601E+02  0.00000000000E+00 0.  1.
         22   -1    0    0    0    0 -0.00000000000E+00 -0.00000000000E+00 -0.89144244463E+00  0.89144244463E+00  0.00000000000E+00 0. -1.
          4    1    1    2  501    0  0.32507567467E+01 -0.30403073762E+01  0.77664767512E+01  0.89514830891E+01  0.00000000000E+00 0. -1.
         -4    1    1    2    0  501 -0.32507567467E+01  0.30403073762E+01  0.16268713405E+02  0.16866591956E+02  0.00000000000E+00 0.  1.
<mgrwt>
<rscale>  0 0.44509424E+01</rscale>
<asrwt>0</asrwt>
<pdfrwt beam="1">0</pdfrwt>
<pdfrwt beam="2">0</pdfrwt>
<totfact> 0.58598499E+11</totfact>
</mgrwt>
</event>
<event>
 4    2  0.2130683E+006  0.2162514E+01  0.7546771E-02  0.2879042E+00
         22   -1    0    0    0    0  0.00000000000E+00  0.00000000000E+00  0.25229621068E+01  0.25229621068E+01  0.00000000000E+00 0.  1.
         22   -1    0    0    0    0 -0.00000000000E+00 -0.00000000000E+00 -0.20430413342E+01  0.20430413342E+01  0.00000000000E+00 0. -1.
          4    1    1    2  501    0 -0.91118515757E+00 -0.19611756898E+01 -0.45530046297E+00  0.22099246569E+01  0.00000000000E+00 0. -1.
         -4    1    1    2    0  501  0.91118515757E+00  0.19611756898E+01  0.93522123552E+00  0.23560787841E+01  0.00000000000E+00 0.  1.
<mgrwt>
<rscale>  0 0.21625144E+01</rscale>
<asrwt>0</asrwt>
<pdfrwt beam="1">0</pdfrwt>
<pdfrwt beam="2">0</pdfrwt>
<totfact> 0.35694882E+12</totfact>
</mgrwt>
</event>
<event>
 4    2  0.2130683E+006  0.2182802E+01  0.7546771E-02  0.2867378E+00
         22   -1    0    0    0    0  0.00000000000E+00  0.00000000000E+00  0.56575207971E+01  0.56575207971E+01  0.00000000000E+00 0. -1.
         22   -1    0    0    0    0 -0.00000000000E+00 -0.00000000000E+00 -0.20463278623E+01  0.20463278623E+01  0.00000000000E+00 0.  1.
          4    1    1    2  501    0  0.21407604057E+01  0.42634253757E+00 -0.11492228764E+01  0.24668474403E+01  0.00000000000E+00 0.  1.
         -4    1    1    2    0  501 -0.21407604057E+01 -0.42634253757E+00  0.47604158112E+01  0.52370012191E+01  0.00000000000E+00 0. -1.
<mgrwt>
<rscale>  0 0.21828017E+01</rscale>
<asrwt>0</asrwt>
<pdfrwt beam="1">0</pdfrwt>
<pdfrwt beam="2">0</pdfrwt>
<totfact> 0.13791535E+12</totfact>
</mgrwt>
</event>
<event>
 4    2  0.2130683E+006  0.3118415E+01  0.7546771E-02  0.2486034E+00
         22   -1    0    0    0    0  0.00000000000E+00  0.00000000000E+00  0.30973196496E+01  0.30973196496E+01  0.00000000000E+00 0.  1.
         22   -1    0    0    0    0 -0.00000000000E+00 -0.00000000000E+00 -0.48171569290E+01  0.48171569290E+01  0.00000000000E+00 0. -1.
          4    1    1    2  501    0  0.51702362190E-01 -0.31179864380E+01 -0.31951420002E+01  0.44646886748E+01  0.00000000000E+00 0. -1.
         -4    1    1    2    0  501 -0.51702362190E-01  0.31179864380E+01  0.14753047208E+01  0.34497879038E+01  0.00000000000E+00 0.  1.
<mgrwt>
<rscale>  0 0.31184151E+01</rscale>
<asrwt>0</asrwt>
<pdfrwt beam="1">0</pdfrwt>
<pdfrwt beam="2">0</pdfrwt>
<totfact> 0.10303860E+12</totfact>
</mgrwt>
</event>
<event>
 4    2  0.2130683E+006  0.2475960E+01  0.7546771E-02  0.2719224E+00
         22   -1    0    0    0    0  0.00000000000E+00  0.00000000000E+00  0.14068926927E+02  0.14068926927E+02  0.00000000000E+00 0.  1.
         22   -1    0    0    0    0 -0.00000000000E+00 -0.00000000000E+00 -0.10642361534E+01  0.10642361534E+01  0.00000000000E+00 0. -1.
          4    1    1    2  501    0  0.20271160941E+00 -0.24676477053E+01  0.68757670774E+00  0.25696573552E+01  0.00000000000E+00 0. -1.
         -4    1    1    2    0  501 -0.20271160941E+00  0.24676477053E+01  0.12317114066E+02  0.12563505726E+02  0.00000000000E+00 0.  1.
<mgrwt>
<rscale>  0 0.24759599E+01</rscale>
<asrwt>0</asrwt>
<pdfrwt beam="1">0</pdfrwt>
<pdfrwt beam="2">0</pdfrwt>
<totfact> 0.97479645E+11</totfact>
</mgrwt>
</event>
<event>
 4    2  0.2130683E+006  0.3864386E+01  0.7546771E-02  0.2303992E+00
         22   -1    0    0    0    0  0.00000000000E+00  0.00000000000E+00  0.17580999155E+01  0.17580999155E+01  0.00000000000E+00 0. -1.
         22   -1    0    0    0    0 -0.00000000000E+00 -0.00000000000E+00 -0.10166525342E+02  0.10166525342E+02  0.00000000000E+00 0.  1.
          4    1    1    2  501    0 -0.33525204317E+01  0.19220000972E+01 -0.66224658342E+01  0.76674983758E+01  0.00000000000E+00 0.  1.
         -4    1    1    2    0  501  0.33525204317E+01 -0.19220000972E+01 -0.17859595919E+01  0.42571268812E+01  0.00000000000E+00 0. -1.
<mgrwt>
<rscale>  0 0.38643858E+01</rscale>
<asrwt>0</asrwt>
<pdfrwt beam="1">0</pdfrwt>
<pdfrwt beam="2">0</pdfrwt>
<totfact> 0.81384675E+11</totfact>
</mgrwt>
</event>
<event>
 4    2  0.2130683E+006  0.3851914E+01  0.7546771E-02  0.2306528E+00
         22   -1    0    0    0    0  0.00000000000E+00  0.00000000000E+00  0.14305863648E+02  0.14305863648E+02  0.00000000000E+00 0.  1.
         22   -1    0    0    0    0 -0.00000000000E+00 -0.00000000000E+00 -0.78346169964E+01  0.78346169964E+01  0.00000000000E+00 0. -1.
          4    1    1    2  501    0 -0.36017228004E+01  0.13655902443E+01 -0.70758780054E+01  0.80563821529E+01  0.00000000000E+00 0. -1.
         -4    1    1    2    0  501  0.36017228004E+01 -0.13655902443E+01  0.13547124657E+02  0.14084098491E+02  0.00000000000E+00 0.  1.
<mgrwt>
<rscale>  0 0.38519143E+01</rscale>
<asrwt>0</asrwt>
<pdfrwt beam="1">0</pdfrwt>
<pdfrwt beam="2">0</pdfrwt>
<totfact> 0.92638499E+10</totfact>
</mgrwt>
</event>
<event>
 4    2  0.2130683E+006  0.2041141E+01  0.7546771E-02  0.2953496E+00
         22   -1    0    0    0    0  0.00000000000E+00  0.00000000000E+00  0.13924912023E+02  0.13924912023E+02  0.00000000000E+00 0. -1.
         22   -1    0    0    0    0 -0.00000000000E+00 -0.00000000000E+00 -0.90850997857E+00  0.90850997857E+00  0.00000000000E+00 0.  1.
          4    1    1    2  501    0  0.77452363610E-01 -0.20396712506E+01  0.43430160108E+00  0.20868338602E+01  0.00000000000E+00 0.  1.
         -4    1    1    2    0  501 -0.77452363610E-01  0.20396712506E+01  0.12582100443E+02  0.12746588141E+02  0.00000000000E+00 0. -1.
<mgrwt>
<rscale>  0 0.20411413E+01</rscale>
<asrwt>0</asrwt>
<pdfrwt beam="1">0</pdfrwt>
<pdfrwt beam="2">0</pdfrwt>
<totfact> 0.11824914E+12</totfact>
</mgrwt>
</event>
<event>
 4    2  0.2130683E+006  0.2024958E+01  0.7546771E-02  0.2964080E+00
         22   -1    0    0    0    0  0.00000000000E+00  0.00000000000E+00  0.89768970624E+01  0.89768970624E+01  0.00000000000E+00 0.  1.
         22   -1    0    0    0    0 -0.00000000000E+00 -0.00000000000E+00 -0.94778045694E+00  0.94778045694E+00  0.00000000000E+00 0. -1.
          4    1    1    2  501    0 -0.19964111881E+01 -0.33881462474E+00  0.44286487536E+00  0.20728198860E+01  0.00000000000E+00 0. -1.
         -4    1    1    2    0  501  0.19964111881E+01  0.33881462474E+00  0.75862517301E+01  0.78518576333E+01  0.00000000000E+00 0.  1.
<mgrwt>
<rscale>  0 0.20249575E+01</rscale>
<asrwt>0</asrwt>
<pdfrwt beam="1">0</pdfrwt>
<pdfrwt beam="2">0</pdfrwt>
<totfact> 0.19218299E+12</totfact>
</mgrwt>
</event>
<event>
 4    2  0.2130683E+006  0.3191216E+01  0.7546771E-02  0.2465002E+00
         22   -1    0    0    0    0  0.00000000000E+00  0.00000000000E+00  0.55427519403E+01  0.55427519403E+01  0.00000000000E+00 0. -1.
         22   -1    0    0    0    0 -0.00000000000E+00 -0.00000000000E+00 -0.48027309159E+01  0.48027309159E+01  0.00000000000E+00 0.  1.
          4    1    1    2  501    0  0.22555417129E+01  0.22575188679E+01 -0.36945950881E+01  0.48819967967E+01  0.00000000000E+00 0.  1.
         -4    1    1    2    0  501 -0.22555417129E+01 -0.22575188679E+01  0.44346161125E+01  0.54634860596E+01  0.00000000000E+00 0. -1.
<mgrwt>
<rscale>  0 0.31912160E+01</rscale>
<asrwt>0</asrwt>
<pdfrwt beam="1">0</pdfrwt>
<pdfrwt beam="2">0</pdfrwt>
<totfact> 0.52096894E+11</totfact>
</mgrwt>
</event>
<event>
 4    2  0.2130683E+006  0.3002391E+01  0.7546771E-02  0.2521425E+00
         22   -1    0    0    0    0  0.00000000000E+00  0.00000000000E+00  0.10584262948E+01  0.10584262948E+01  0.00000000000E+00 0. -1.
         22   -1    0    0    0    0 -0.00000000000E+00 -0.00000000000E+00 -0.88588248091E+01  0.88588248091E+01  0.00000000000E+00 0.  1.
          4    1    1    2  501    0 -0.29205762499E+01 -0.69612278718E+00 -0.48745909035E+01  0.57250317940E+01  0.00000000000E+00 0. -1.
         -4    1    1    2    0  501  0.29205762499E+01  0.69612278718E+00 -0.29258076108E+01  0.41922193099E+01  0.00000000000E+00 0.  1.
<mgrwt>
<rscale>  0 0.30023911E+01</rscale>
<asrwt>0</asrwt>
<pdfrwt beam="1">0</pdfrwt>
<pdfrwt beam="2">0</pdfrwt>
<totfact> 0.17216151E+12</totfact>
</mgrwt>
</event>
<event>
 4    2  0.2130683E+006  0.2048435E+01  0.7546771E-02  0.2948780E+00
         22   -1    0    0    0    0  0.00000000000E+00  0.00000000000E+00  0.71395017986E+02  0.71395017986E+02  0.00000000000E+00 0.  1.
         22   -1    0    0    0    0 -0.00000000000E+00 -0.00000000000E+00 -0.81552061346E-01  0.81552061346E-01  0.00000000000E+00 0. -1.
          4    1    1    2  501    0  0.20367915102E+01 -0.21809646848E+00  0.16768732987E+02  0.16893386034E+02  0.00000000000E+00 0. -1.
         -4    1    1    2    0  501 -0.20367915102E+01  0.21809646848E+00  0.54544732938E+02  0.54583184013E+02  0.00000000000E+00 0.  1.
<mgrwt>
<rscale>  0 0.20484349E+01</rscale>
<asrwt>0</asrwt>
<pdfrwt beam="1">0</pdfrwt>
<pdfrwt beam="2">0</pdfrwt>
<totfact> 0.21637707E+12</totfact>
</mgrwt>
</event>
<event>
 4    2  0.2130683E+006  0.2424266E+01  0.7546771E-02  0.2742890E+00
         22   -1    0    0    0    0  0.00000000000E+00  0.00000000000E+00  0.44024655301E+00  0.44024655301E+00  0.00000000000E+00 0. -1.
         22   -1    0    0    0    0 -0.00000000000E+00 -0.00000000000E+00 -0.27289062327E+02  0.27289062327E+02  0.00000000000E+00 0.  1.
          4    1    1    2  501    0  0.18244795376E+01 -0.15963518780E+01 -0.23333629488E+02  0.23459226969E+02  0.00000000000E+00 0.  1.
         -4    1    1    2    0  501 -0.18244795376E+01  0.15963518780E+01 -0.35151862864E+01  0.42700819114E+01  0.00000000000E+00 0. -1.
<mgrwt>
<rscale>  0 0.24242658E+01</rscale>
<asrwt>0</asrwt>
<pdfrwt beam="1">0</pdfrwt>
<pdfrwt beam="2">0</pdfrwt>
<totfact> 0.11624255E+12</totfact>
</mgrwt>
</event>
<event>
 4    2  0.2130683E+006  0.3564182E+01  0.7546771E-02  0.2369244E+00
         22   -1    0    0    0    0  0.00000000000E+00  0.00000000000E+00  0.44243449962E+02  0.44243449962E+02  0.00000000000E+00 0.  1.
         22   -1    0    0    0    0 -0.00000000000E+00 -0.00000000000E+00 -0.29398934099E+00  0.29398934099E+00  0.00000000000E+00 0. -1.
          4    1    1    2  501    0  0.31883618453E+01 -0.15930286557E+01  0.18571938911E+02  0.18910851554E+02  0.00000000000E+00 0. -1.
         -4    1    1    2    0  501 -0.31883618453E+01  0.15930286557E+01  0.25377521710E+02  0.25626587749E+02  0.00000000000E+00 0.  1.
<mgrwt>
<rscale>  0 0.35641818E+01</rscale>
<asrwt>0</asrwt>
<pdfrwt beam="1">0</pdfrwt>
<pdfrwt beam="2">0</pdfrwt>
<totfact> 0.98296775E+11</totfact>
</mgrwt>
</event>
<event>
 4    2  0.2130683E+006  0.2212326E+01  0.7546771E-02  0.2850771E+00
         22   -1    0    0    0    0  0.00000000000E+00  0.00000000000E+00  0.63320144175E+01  0.63320144175E+01  0.00000000000E+00 0.  1.
         22   -1    0    0    0    0 -0.00000000000E+00 -0.00000000000E+00 -0.16316946750E+01  0.16316946750E+01  0.00000000000E+00 0. -1.
          4    1    1    2  501    0  0.22086123587E+01 -0.12813704892E+00 -0.53849523083E+00  0.22769200179E+01  0.00000000000E+00 0. -1.
         -4    1    1    2    0  501 -0.22086123587E+01  0.12813704892E+00  0.52388149733E+01  0.56867890746E+01  0.00000000000E+00 0.  1.
<mgrwt>
<rscale>  0 0.22123263E+01</rscale>
<asrwt>0</asrwt>
<pdfrwt beam="1">0</pdfrwt>
<pdfrwt beam="2">0</pdfrwt>
<totfact> 0.15667322E+12</totfact>
</mgrwt>
</event>
<event>
 4    2  0.2130683E+006  0.3672316E+01  0.7546771E-02  0.2344680E+00
         22   -1    0    0    0    0  0.00000000000E+00  0.00000000000E+00  0.19402145262E+02  0.19402145262E+02  0.00000000000E+00 0. -1.
         22   -1    0    0    0    0 -0.00000000000E+00 -0.00000000000E+00 -0.39437888275E+01  0.39437888275E+01  0.00000000000E+00 0.  1.
          4    1    1    2  501    0 -0.29023206156E+01 -0.22499874192E+01 -0.28653175514E+01  0.46578914771E+01  0.00000000000E+00 0.  1.
         -4    1    1    2    0  501  0.29023206156E+01  0.22499874192E+01  0.18323673986E+02  0.18688042613E+02  0.00000000000E+00 0. -1.
<mgrwt>
<rscale>  0 0.36723165E+01</rscale>
<asrwt>0</asrwt>
<pdfrwt beam="1">0</pdfrwt>
<pdfrwt beam="2">0</pdfrwt>
<totfact> 0.14364504E+11</totfact>
</mgrwt>
</event>
<event>
 4    2  0.2130683E+006  0.3296357E+01  0.7546771E-02  0.2436084E+00
         22   -1    0    0    0    0  0.00000000000E+00  0.00000000000E+00  0.26034400337E+02  0.26034400337E+02  0.00000000000E+00 0. -1.
         22   -1    0    0    0    0 -0.00000000000E+00 -0.00000000000E+00 -0.18064940547E+01  0.18064940547E+01  0.00000000000E+00 0.  1.
          4    1    1    2  501    0  0.64867663558E+00 -0.32319018575E+01 -0.92949335833E-01  0.32976674443E+01  0.00000000000E+00 0.  1.
         -4    1    1    2    0  501 -0.64867663558E+00  0.32319018575E+01  0.24320855618E+02  0.24543226947E+02  0.00000000000E+00 0. -1.
<mgrwt>
<rscale>  0 0.32963572E+01</rscale>
<asrwt>0</asrwt>
<pdfrwt beam="1">0</pdfrwt>
<pdfrwt beam="2">0</pdfrwt>
<totfact> 0.24671088E+11</totfact>
</mgrwt>
</event>
<event>
 4    2  0.2130683E+006  0.9261486E+01  0.7546771E-02  0.1811074E+00
         22   -1    0    0    0    0  0.00000000000E+00  0.00000000000E+00  0.11727495837E+02  0.11727495837E+02  0.00000000000E+00 0.  1.
         22   -1    0    0    0    0 -0.00000000000E+00 -0.00000000000E+00 -0.81003868019E+01  0.81003868019E+01  0.00000000000E+00 0. -1.
          4    1    1    2  501    0  0.91783641539E+01  0.12380474408E+01  0.49024717010E+01  0.10478996077E+02  0.00000000000E+00 0.  1.
         -4    1    1    2    0  501 -0.91783641539E+01 -0.12380474408E+01 -0.12753626662E+01  0.93488865614E+01  0.00000000000E+00 0. -1.
<mgrwt>
<rscale>  0 0.92614864E+01</rscale>
<asrwt>0</asrwt>
<pdfrwt beam="1">0</pdfrwt>
<pdfrwt beam="2">0</pdfrwt>
<totfact> 0.11348872E+11</totfact>
</mgrwt>
</event>
<event>
 4    2  0.2130683E+006  0.2379008E+01  0.7546771E-02  0.2764400E+00
         22   -1    0    0    0    0  0.00000000000E+00  0.00000000000E+00  0.24611536817E+00  0.24611536817E+00  0.00000000000E+00 0. -1.
         22   -1    0    0    0    0 -0.00000000000E+00 -0.00000000000E+00 -0.28648049025E+02  0.28648049025E+02  0.00000000000E+00 0.  1.
          4    1    1    2  501    0 -0.14811908427E+01  0.18616532606E+01 -0.20617995665E+02  0.20754792806E+02  0.00000000000E+00 0.  1.
         -4    1    1    2    0  501  0.14811908427E+01 -0.18616532606E+01 -0.77839379925E+01  0.81393715879E+01  0.00000000000E+00 0. -1.
<mgrwt>
<rscale>  0 0.23790080E+01</rscale>
<asrwt>0</asrwt>
<pdfrwt beam="1">0</pdfrwt>
<pdfrwt beam="2">0</pdfrwt>
<totfact> 0.20994806E+12</totfact>
</mgrwt>
</event>
<event>
 4    2  0.2130683E+006  0.2238663E+01  0.7546771E-02  0.2836311E+00
         22   -1    0    0    0    0  0.00000000000E+00  0.00000000000E+00  0.35633540502E+02  0.35633540502E+02  0.00000000000E+00 0.  1.
         22   -1    0    0    0    0 -0.00000000000E+00 -0.00000000000E+00 -0.21178965837E+00  0.21178965837E+00  0.00000000000E+00 0. -1.
          4    1    1    2  501    0 -0.22210523611E+01 -0.28024959754E+00  0.73229934614E+01  0.76575352865E+01  0.00000000000E+00 0. -1.
         -4    1    1    2    0  501  0.22210523611E+01  0.28024959754E+00  0.28098757383E+02  0.28187794874E+02  0.00000000000E+00 0.  1.
<mgrwt>
<rscale>  0 0.22386633E+01</rscale>
<asrwt>0</asrwt>
<pdfrwt beam="1">0</pdfrwt>
<pdfrwt beam="2">0</pdfrwt>
<totfact> 0.18782736E+12</totfact>
</mgrwt>
</event>
<event>
 4    2  0.2130683E+006  0.3012461E+01  0.7546771E-02  0.2518257E+00
         22   -1    0    0    0    0  0.00000000000E+00  0.00000000000E+00  0.14941725953E+01  0.14941725953E+01  0.00000000000E+00 0. -1.
         22   -1    0    0    0    0 -0.00000000000E+00 -0.00000000000E+00 -0.76233345856E+01  0.76233345856E+01  0.00000000000E+00 0.  1.
          4    1    1    2  501    0 -0.11924776794E+01  0.27663907273E+01 -0.51200472694E+01  0.59405222593E+01  0.00000000000E+00 0.  1.
         -4    1    1    2    0  501  0.11924776794E+01 -0.27663907273E+01 -0.10091147208E+01  0.31769849216E+01  0.00000000000E+00 0. -1.
<mgrwt>
<rscale>  0 0.30124609E+01</rscale>
<asrwt>0</asrwt>
<pdfrwt beam="1">0</pdfrwt>
<pdfrwt beam="2">0</pdfrwt>
<totfact> 0.13888716E+12</totfact>
</mgrwt>
</event>
<event>
 4    2  0.2130683E+006  0.2359731E+01  0.7546771E-02  0.2773798E+00
         22   -1    0    0    0    0  0.00000000000E+00  0.00000000000E+00  0.57715799336E+00  0.57715799336E+00  0.00000000000E+00 0. -1.
         22   -1    0    0    0    0 -0.00000000000E+00 -0.00000000000E+00 -0.10405920262E+02  0.10405920262E+02  0.00000000000E+00 0.  1.
          4    1    1    2  501    0 -0.17947729644E+01  0.15320309232E+01 -0.63965956038E+01  0.68179736038E+01  0.00000000000E+00 0.  1.
         -4    1    1    2    0  501  0.17947729644E+01 -0.15320309232E+01 -0.34321666648E+01  0.41651046516E+01  0.00000000000E+00 0. -1.
<mgrwt>
<rscale>  0 0.23597307E+01</rscale>
<asrwt>0</asrwt>
<pdfrwt beam="1">0</pdfrwt>
<pdfrwt beam="2">0</pdfrwt>
<totfact> 0.28242790E+12</totfact>
</mgrwt>
</event>
<event>
 4    2  0.2130683E+006  0.2596726E+01  0.7546771E-02  0.2667364E+00
         22   -1    0    0    0    0  0.00000000000E+00  0.00000000000E+00  0.22642759221E+01  0.22642759221E+01  0.00000000000E+00 0.  1.
         22   -1    0    0    0    0 -0.00000000000E+00 -0.00000000000E+00 -0.10259420980E+02  0.10259420980E+02  0.00000000000E+00 0. -1.
          4    1    1    2  501    0 -0.24558605045E+01 -0.84364307150E+00 -0.92729019282E+01  0.96296258816E+01  0.00000000000E+00 0. -1.
         -4    1    1    2    0  501  0.24558605045E+01  0.84364307150E+00  0.12777568706E+01  0.28940710202E+01  0.00000000000E+00 0.  1.
<mgrwt>
<rscale>  0 0.25967257E+01</rscale>
<asrwt>0</asrwt>
<pdfrwt beam="1">0</pdfrwt>
<pdfrwt beam="2">0</pdfrwt>
<totfact> 0.60056820E+11</totfact>
</mgrwt>
</event>
<event>
 4    2  0.2130683E+006  0.2326283E+01  0.7546771E-02  0.2790451E+00
         22   -1    0    0    0    0  0.00000000000E+00  0.00000000000E+00  0.39904490359E+02  0.39904490359E+02  0.00000000000E+00 0.  1.
         22   -1    0    0    0    0 -0.00000000000E+00 -0.00000000000E+00 -0.22576159808E+00  0.22576159808E+00  0.00000000000E+00 0. -1.
          4    1    1    2  501    0 -0.16558830931E+01  0.16339051630E+01  0.32518647495E+02  0.32601748877E+02  0.00000000000E+00 0.  1.
         -4    1    1    2    0  501  0.16558830931E+01 -0.16339051630E+01  0.71600812655E+01  0.75285030802E+01  0.00000000000E+00 0. -1.
<mgrwt>
<rscale>  0 0.23262835E+01</rscale>
<asrwt>0</asrwt>
<pdfrwt beam="1">0</pdfrwt>
<pdfrwt beam="2">0</pdfrwt>
<totfact> 0.15108669E+12</totfact>
</mgrwt>
</event>
<event>
 4    2  0.2130683E+006  0.4313722E+01  0.7546771E-02  0.2221058E+00
         22   -1    0    0    0    0  0.00000000000E+00  0.00000000000E+00  0.40753603023E+01  0.40753603023E+01  0.00000000000E+00 0.  1.
         22   -1    0    0    0    0 -0.00000000000E+00 -0.00000000000E+00 -0.45983403882E+01  0.45983403882E+01  0.00000000000E+00 0. -1.
          4    1    1    2  501    0 -0.30019142480E+01  0.30978553872E+01 -0.62505193535E+00  0.43587712803E+01  0.00000000000E+00 0.  1.
         -4    1    1    2    0  501  0.30019142480E+01 -0.30978553872E+01  0.10207184950E+00  0.43149294102E+01  0.00000000000E+00 0. -1.
<mgrwt>
<rscale>  0 0.43137220E+01</rscale>
<asrwt>0</asrwt>
<pdfrwt beam="1">0</pdfrwt>
<pdfrwt beam="2">0</pdfrwt>
<totfact> 0.78895191E+11</totfact>
</mgrwt>
</event>
<event>
 4    2  0.2130683E+006  0.3887424E+01  0.7546771E-02  0.2299344E+00
         22   -1    0    0    0    0  0.00000000000E+00  0.00000000000E+00  0.74141176087E+01  0.74141176087E+01  0.00000000000E+00 0.  1.
         22   -1    0    0    0    0 -0.00000000000E+00 -0.00000000000E+00 -0.21408057251E+01  0.21408057251E+01  0.00000000000E+00 0. -1.
          4    1    1    2  501    0 -0.24274656660E+01  0.30363590881E+01  0.15911662828E+01  0.42004614284E+01  0.00000000000E+00 0. -1.
         -4    1    1    2    0  501  0.24274656660E+01 -0.30363590881E+01  0.36821456008E+01  0.53544619054E+01  0.00000000000E+00 0.  1.
<mgrwt>
<rscale>  0 0.38874241E+01</rscale>
<asrwt>0</asrwt>
<pdfrwt beam="1">0</pdfrwt>
<pdfrwt beam="2">0</pdfrwt>
<totfact> 0.94799746E+11</totfact>
</mgrwt>
</event>
<event>
 4    2  0.2130683E+006  0.1394065E+02  0.7546771E-02  0.1651474E+00
         22   -1    0    0    0    0  0.00000000000E+00  0.00000000000E+00  0.80785791460E+01  0.80785791460E+01  0.00000000000E+00 0. -1.
         22   -1    0    0    0    0 -0.00000000000E+00 -0.00000000000E+00 -0.24159712743E+02  0.24159712743E+02  0.00000000000E+00 0.  1.
          4    1    1    2  501    0 -0.84658536327E+01 -0.11075698763E+02 -0.90944880970E+01  0.16644863909E+02  0.00000000000E+00 0.  1.
         -4    1    1    2    0  501  0.84658536327E+01  0.11075698763E+02 -0.69866454998E+01  0.15593427979E+02  0.00000000000E+00 0. -1.
<mgrwt>
<rscale>  0 0.13940652E+02</rscale>
<asrwt>0</asrwt>
<pdfrwt beam="1">0</pdfrwt>
<pdfrwt beam="2">0</pdfrwt>
<totfact> 0.46551397E+10</totfact>
</mgrwt>
</event>
<event>
 4    2  0.2130683E+006  0.3627366E+01  0.7546771E-02  0.2354737E+00
         22   -1    0    0    0    0  0.00000000000E+00  0.00000000000E+00  0.18213902631E+02  0.18213902631E+02  0.00000000000E+00 0. -1.
         22   -1    0    0    0    0 -0.00000000000E+00 -0.00000000000E+00 -0.72927978949E+00  0.72927978949E+00  0.00000000000E+00 0.  1.
          4    1    1    2  501    0 -0.12507985798E+01 -0.34048911117E+01  0.78225734923E+01  0.86226699236E+01  0.00000000000E+00 0.  1.
         -4    1    1    2    0  501  0.12507985798E+01  0.34048911117E+01  0.96620493490E+01  0.10320512497E+02  0.00000000000E+00 0. -1.
<mgrwt>
<rscale>  0 0.36273655E+01</rscale>
<asrwt>0</asrwt>
<pdfrwt beam="1">0</pdfrwt>
<pdfrwt beam="2">0</pdfrwt>
<totfact> 0.10903409E+12</totfact>
</mgrwt>
</event>
<event>
 4    2  0.2130683E+006  0.2350483E+01  0.7546771E-02  0.2778357E+00
         22   -1    0    0    0    0  0.00000000000E+00  0.00000000000E+00  0.19226550558E+01  0.19226550558E+01  0.00000000000E+00 0.  1.
         22   -1    0    0    0    0 -0.00000000000E+00 -0.00000000000E+00 -0.40396307982E+01  0.40396307982E+01  0.00000000000E+00 0. -1.
          4    1    1    2  501    0 -0.68324590331E+00 -0.22489872299E+01 -0.26601972994E+01  0.35498476300E+01  0.00000000000E+00 0. -1.
         -4    1    1    2    0  501  0.68324590331E+00  0.22489872299E+01  0.54322155694E+00  0.24124382240E+01  0.00000000000E+00 0.  1.
<mgrwt>
<rscale>  0 0.23504826E+01</rscale>
<asrwt>0</asrwt>
<pdfrwt beam="1">0</pdfrwt>
<pdfrwt beam="2">0</pdfrwt>
<totfact> 0.22077278E+12</totfact>
</mgrwt>
</event>
<event>
 4    2  0.2130683E+006  0.2249409E+01  0.7546771E-02  0.2830503E+00
         22   -1    0    0    0    0  0.00000000000E+00  0.00000000000E+00  0.34400485791E+01  0.34400485791E+01  0.00000000000E+00 0.  1.
         22   -1    0    0    0    0 -0.00000000000E+00 -0.00000000000E+00 -0.16153179255E+01  0.16153179255E+01  0.00000000000E+00 0. -1.
          4    1    1    2  501    0  0.16137759466E+00 -0.22436122856E+01  0.16682584861E+01  0.28005223071E+01  0.00000000000E+00 0. -1.
         -4    1    1    2    0  501 -0.16137759466E+00  0.22436122856E+01  0.15647216755E+00  0.22548441976E+01  0.00000000000E+00 0.  1.
<mgrwt>
<rscale>  0 0.22494085E+01</rscale>
<asrwt>0</asrwt>
<pdfrwt beam="1">0</pdfrwt>
<pdfrwt beam="2">0</pdfrwt>
<totfact> 0.32600177E+12</totfact>
</mgrwt>
</event>
<event>
 4    2  0.2130683E+006  0.2638662E+01  0.7546771E-02  0.2650385E+00
         22   -1    0    0    0    0  0.00000000000E+00  0.00000000000E+00  0.18543803361E+02  0.18543803361E+02  0.00000000000E+00 0.  1.
         22   -1    0    0    0    0 -0.00000000000E+00 -0.00000000000E+00 -0.42861709143E+00  0.42861709143E+00  0.00000000000E+00 0. -1.
          4    1    1    2  501    0  0.68224968440E+00 -0.25489351282E+01  0.57170174798E+01  0.62965723838E+01  0.00000000000E+00 0. -1.
         -4    1    1    2    0  501 -0.68224968440E+00  0.25489351282E+01  0.12398168789E+02  0.12675848068E+02  0.00000000000E+00 0.  1.
<mgrwt>
<rscale>  0 0.26386616E+01</rscale>
<asrwt>0</asrwt>
<pdfrwt beam="1">0</pdfrwt>
<pdfrwt beam="2">0</pdfrwt>
<totfact> 0.19452600E+12</totfact>
</mgrwt>
</event>
<event>
 4    2  0.2130683E+006  0.2389127E+01  0.7546771E-02  0.2759525E+00
         22   -1    0    0    0    0  0.00000000000E+00  0.00000000000E+00  0.78239137815E+01  0.78239137815E+01  0.00000000000E+00 0.  1.
         22   -1    0    0    0    0 -0.00000000000E+00 -0.00000000000E+00 -0.23098598292E+01  0.23098598292E+01  0.00000000000E+00 0. -1.
          4    1    1    2  501    0 -0.22143382687E+01  0.89701362860E+00 -0.14339923722E+01  0.27864424526E+01  0.00000000000E+00 0. -1.
         -4    1    1    2    0  501  0.22143382687E+01 -0.89701362860E+00  0.69480463245E+01  0.73473311580E+01  0.00000000000E+00 0.  1.
<mgrwt>
<rscale>  0 0.23891269E+01</rscale>
<asrwt>0</asrwt>
<pdfrwt beam="1">0</pdfrwt>
<pdfrwt beam="2">0</pdfrwt>
<totfact> 0.81371264E+11</totfact>
</mgrwt>
</event>
<event>
 4    2  0.2130683E+006  0.3313703E+01  0.7546771E-02  0.2431469E+00
         22   -1    0    0    0    0  0.00000000000E+00  0.00000000000E+00  0.78831200108E+00  0.78831200108E+00  0.00000000000E+00 0.  1.
         22   -1    0    0    0    0 -0.00000000000E+00 -0.00000000000E+00 -0.17832017481E+02  0.17832017481E+02  0.00000000000E+00 0. -1.
          4    1    1    2  501    0  0.29054868135E+01 -0.15933525411E+01 -0.12877385412E+02  0.13296904941E+02  0.00000000000E+00 0.  1.
         -4    1    1    2    0  501 -0.29054868135E+01  0.15933525411E+01 -0.41663200680E+01  0.53234245418E+01  0.00000000000E+00 0. -1.
<mgrwt>
<rscale>  0 0.33137028E+01</rscale>
<asrwt>0</asrwt>
<pdfrwt beam="1">0</pdfrwt>
<pdfrwt beam="2">0</pdfrwt>
<totfact> 0.10246097E+12</totfact>
</mgrwt>
</event>
<event>
 4    2  0.2130683E+006  0.3306314E+01  0.7546771E-02  0.2433430E+00
         22   -1    0    0    0    0  0.00000000000E+00  0.00000000000E+00  0.62845932214E+00  0.62845932214E+00  0.00000000000E+00 0. -1.
         22   -1    0    0    0    0 -0.00000000000E+00 -0.00000000000E+00 -0.19045788307E+02  0.19045788307E+02  0.00000000000E+00 0.  1.
          4    1    1    2  501    0 -0.20738271772E+01  0.25750634463E+01 -0.63120860376E+01  0.71255975931E+01  0.00000000000E+00 0. -1.
         -4    1    1    2    0  501  0.20738271772E+01 -0.25750634463E+01 -0.12105242947E+02  0.12548650036E+02  0.00000000000E+00 0.  1.
<mgrwt>
<rscale>  0 0.33063138E+01</rscale>
<asrwt>0</asrwt>
<pdfrwt beam="1">0</pdfrwt>
<pdfrwt beam="2">0</pdfrwt>
<totfact> 0.12211429E+12</totfact>
</mgrwt>
</event>
<event>
 4    2  0.2130683E+006  0.7582521E+01  0.7546771E-02  0.1901375E+00
         22   -1    0    0    0    0  0.00000000000E+00  0.00000000000E+00  0.69098956612E+01  0.69098956612E+01  0.00000000000E+00 0.  1.
         22   -1    0    0    0    0 -0.00000000000E+00 -0.00000000000E+00 -0.84745212637E+01  0.84745212637E+01  0.00000000000E+00 0. -1.
          4    1    1    2  501    0  0.57469811247E+01  0.49463956526E+01  0.25429228094E+00  0.75867836771E+01  0.00000000000E+00 0.  1.
         -4    1    1    2    0  501 -0.57469811247E+01 -0.49463956526E+01 -0.18189178835E+01  0.77976332478E+01  0.00000000000E+00 0. -1.
<mgrwt>
<rscale>  0 0.75825208E+01</rscale>
<asrwt>0</asrwt>
<pdfrwt beam="1">0</pdfrwt>
<pdfrwt beam="2">0</pdfrwt>
<totfact> 0.20349096E+11</totfact>
</mgrwt>
</event>
<event>
 4    2  0.2130683E+006  0.2017842E+01  0.7546771E-02  0.2968786E+00
         22   -1    0    0    0    0  0.00000000000E+00  0.00000000000E+00  0.42573162475E+01  0.42573162475E+01  0.00000000000E+00 0.  1.
         22   -1    0    0    0    0 -0.00000000000E+00 -0.00000000000E+00 -0.10073878856E+01  0.10073878856E+01  0.00000000000E+00 0. -1.
          4    1    1    2  501    0  0.19332887855E+01  0.57799549515E+00  0.22171964349E+01  0.29979400180E+01  0.00000000000E+00 0. -1.
         -4    1    1    2    0  501 -0.19332887855E+01 -0.57799549515E+00  0.10327319269E+01  0.22667641151E+01  0.00000000000E+00 0.  1.
<mgrwt>
<rscale>  0 0.20178415E+01</rscale>
<asrwt>0</asrwt>
<pdfrwt beam="1">0</pdfrwt>
<pdfrwt beam="2">0</pdfrwt>
<totfact> 0.43612699E+12</totfact>
</mgrwt>
</event>
<event>
 4    2  0.2130683E+006  0.2194008E+01  0.7546771E-02  0.2861024E+00
         22   -1    0    0    0    0  0.00000000000E+00  0.00000000000E+00  0.63239869759E+00  0.63239869759E+00  0.00000000000E+00 0.  1.
         22   -1    0    0    0    0 -0.00000000000E+00 -0.00000000000E+00 -0.14430152002E+02  0.14430152002E+02  0.00000000000E+00 0. -1.
          4    1    1    2  501    0  0.21201599427E+01 -0.56443880517E+00 -0.12075826330E+02  0.12273518277E+02  0.00000000000E+00 0. -1.
         -4    1    1    2    0  501 -0.21201599427E+01  0.56443880517E+00 -0.17219269741E+01  0.27890324221E+01  0.00000000000E+00 0.  1.
<mgrwt>
<rscale>  0 0.21940076E+01</rscale>
<asrwt>0</asrwt>
<pdfrwt beam="1">0</pdfrwt>
<pdfrwt beam="2">0</pdfrwt>
<totfact> 0.17086349E+12</totfact>
</mgrwt>
</event>
<event>
 4    2  0.2130683E+006  0.4405288E+01  0.7546771E-02  0.2205928E+00
         22   -1    0    0    0    0  0.00000000000E+00  0.00000000000E+00  0.54014046229E+01  0.54014046229E+01  0.00000000000E+00 0. -1.
         22   -1    0    0    0    0 -0.00000000000E+00 -0.00000000000E+00 -0.76830620672E+01  0.76830620672E+01  0.00000000000E+00 0.  1.
          4    1    1    2  501    0 -0.39229193994E+01 -0.20043119689E+01 -0.59142584019E+01  0.73746196869E+01  0.00000000000E+00 0.  1.
         -4    1    1    2    0  501  0.39229193994E+01  0.20043119689E+01  0.36326009576E+01  0.57098470032E+01  0.00000000000E+00 0. -1.
<mgrwt>
<rscale>  0 0.44052881E+01</rscale>
<asrwt>0</asrwt>
<pdfrwt beam="1">0</pdfrwt>
<pdfrwt beam="2">0</pdfrwt>
<totfact> 0.30698751E+11</totfact>
</mgrwt>
</event>
<event>
 4    2  0.2130683E+006  0.2119637E+01  0.7546771E-02  0.2904400E+00
         22   -1    0    0    0    0  0.00000000000E+00  0.00000000000E+00  0.78546402592E+01  0.78546402592E+01  0.00000000000E+00 0. -1.
         22   -1    0    0    0    0 -0.00000000000E+00 -0.00000000000E+00 -0.62934126231E+00  0.62934126231E+00  0.00000000000E+00 0.  1.
          4    1    1    2  501    0  0.19498454862E+01 -0.83124160249E+00  0.23322147658E+01  0.31515211781E+01  0.00000000000E+00 0. -1.
         -4    1    1    2    0  501 -0.19498454862E+01  0.83124160249E+00  0.48930842311E+01  0.53324603435E+01  0.00000000000E+00 0.  1.
<mgrwt>
<rscale>  0 0.21196368E+01</rscale>
<asrwt>0</asrwt>
<pdfrwt beam="1">0</pdfrwt>
<pdfrwt beam="2">0</pdfrwt>
<totfact> 0.35950556E+12</totfact>
</mgrwt>
</event>
<event>
 4    2  0.2130683E+006  0.2109263E+01  0.7546771E-02  0.2910685E+00
         22   -1    0    0    0    0  0.00000000000E+00  0.00000000000E+00  0.14907279192E+02  0.14907279192E+02  0.00000000000E+00 0.  1.
         22   -1    0    0    0    0 -0.00000000000E+00 -0.00000000000E+00 -0.33232601369E+00  0.33232601369E+00  0.00000000000E+00 0. -1.
          4    1    1    2  501    0 -0.71528134029E-01  0.21080500709E+01  0.48544619577E+01  0.52929001761E+01  0.00000000000E+00 0. -1.
         -4    1    1    2    0  501  0.71528134029E-01 -0.21080500709E+01  0.97204912207E+01  0.99467050297E+01  0.00000000000E+00 0.  1.
<mgrwt>
<rscale>  0 0.21092632E+01</rscale>
<asrwt>0</asrwt>
<pdfrwt beam="1">0</pdfrwt>
<pdfrwt beam="2">0</pdfrwt>
<totfact> 0.33918088E+12</totfact>
</mgrwt>
</event>
<event>
 4    2  0.2130683E+006  0.2795980E+01  0.7546771E-02  0.2590869E+00
         22   -1    0    0    0    0  0.00000000000E+00  0.00000000000E+00  0.44829006569E+01  0.44829006569E+01  0.00000000000E+00 0.  1.
         22   -1    0    0    0    0 -0.00000000000E+00 -0.00000000000E+00 -0.36977171332E+01  0.36977171332E+01  0.00000000000E+00 0. -1.
          4    1    1    2  501    0  0.90354256562E+00 -0.26459615177E+01 -0.25806956785E+01  0.38049299213E+01  0.00000000000E+00 0. -1.
         -4    1    1    2    0  501 -0.90354256562E+00  0.26459615177E+01  0.33658792022E+01  0.43756878688E+01  0.00000000000E+00 0.  1.
<mgrwt>
<rscale>  0 0.27959795E+01</rscale>
<asrwt>0</asrwt>
<pdfrwt beam="1">0</pdfrwt>
<pdfrwt beam="2">0</pdfrwt>
<totfact> 0.91146589E+11</totfact>
</mgrwt>
</event>
<event>
 4    2  0.2130683E+006  0.2558283E+01  0.7546771E-02  0.2683380E+00
         22   -1    0    0    0    0  0.00000000000E+00  0.00000000000E+00  0.83698366671E+00  0.83698366671E+00  0.00000000000E+00 0.  1.
         22   -1    0    0    0    0 -0.00000000000E+00 -0.00000000000E+00 -0.78293850896E+01  0.78293850896E+01  0.00000000000E+00 0. -1.
          4    1    1    2  501    0  0.92707909388E-01  0.25566025159E+01 -0.33423935629E+01  0.42090861134E+01  0.00000000000E+00 0.  1.
         -4    1    1    2    0  501 -0.92707909388E-01 -0.25566025159E+01 -0.36500078600E+01  0.44572826429E+01  0.00000000000E+00 0. -1.
<mgrwt>
<rscale>  0 0.25582829E+01</rscale>
<asrwt>0</asrwt>
<pdfrwt beam="1">0</pdfrwt>
<pdfrwt beam="2">0</pdfrwt>
<totfact> 0.26107485E+12</totfact>
</mgrwt>
</event>
<event>
 4    2  0.2130683E+006  0.2291676E+01  0.7546771E-02  0.2808166E+00
         22   -1    0    0    0    0  0.00000000000E+00  0.00000000000E+00  0.34208388577E+01  0.34208388577E+01  0.00000000000E+00 0.  1.
         22   -1    0    0    0    0 -0.00000000000E+00 -0.00000000000E+00 -0.43935303670E+01  0.43935303670E+01  0.00000000000E+00 0. -1.
          4    1    1    2  501    0  0.12790328578E+00  0.22881035508E+01 -0.36377998745E+01  0.42994610170E+01  0.00000000000E+00 0. -1.
         -4    1    1    2    0  501 -0.12790328578E+00 -0.22881035508E+01  0.26651083652E+01  0.35149082077E+01  0.00000000000E+00 0.  1.
<mgrwt>
<rscale>  0 0.22916756E+01</rscale>
<asrwt>0</asrwt>
<pdfrwt beam="1">0</pdfrwt>
<pdfrwt beam="2">0</pdfrwt>
<totfact> 0.10225786E+12</totfact>
</mgrwt>
</event>
<event>
 4    2  0.2130683E+006  0.2644300E+01  0.7546771E-02  0.2648140E+00
         22   -1    0    0    0    0  0.00000000000E+00  0.00000000000E+00  0.15853889437E+01  0.15853889437E+01  0.00000000000E+00 0.  1.
         22   -1    0    0    0    0 -0.00000000000E+00 -0.00000000000E+00 -0.46375199683E+01  0.46375199683E+01  0.00000000000E+00 0. -1.
          4    1    1    2  501    0 -0.26441248387E+01  0.30424191691E-01 -0.22145186538E+01  0.34491179542E+01  0.00000000000E+00 0. -1.
         -4    1    1    2    0  501  0.26441248387E+01 -0.30424191691E-01 -0.83761237075E+00  0.27737909578E+01  0.00000000000E+00 0.  1.
<mgrwt>
<rscale>  0 0.26442999E+01</rscale>
<asrwt>0</asrwt>
<pdfrwt beam="1">0</pdfrwt>
<pdfrwt beam="2">0</pdfrwt>
<totfact> 0.23439377E+12</totfact>
</mgrwt>
</event>
<event>
 4    2  0.2130683E+006  0.2880229E+01  0.7546771E-02  0.2561439E+00
         22   -1    0    0    0    0  0.00000000000E+00  0.00000000000E+00  0.12798511469E+01  0.12798511469E+01  0.00000000000E+00 0. -1.
         22   -1    0    0    0    0 -0.00000000000E+00 -0.00000000000E+00 -0.72393695201E+01  0.72393695201E+01  0.00000000000E+00 0.  1.
          4    1    1    2  501    0 -0.28254588477E+01 -0.55901781595E+00 -0.43577151774E+01  0.52235428768E+01  0.00000000000E+00 0.  1.
         -4    1    1    2    0  501  0.28254588477E+01  0.55901781595E+00 -0.16018031958E+01  0.32956777902E+01  0.00000000000E+00 0. -1.
<mgrwt>
<rscale>  0 0.28802289E+01</rscale>
<asrwt>0</asrwt>
<pdfrwt beam="1">0</pdfrwt>
<pdfrwt beam="2">0</pdfrwt>
<totfact> 0.17652529E+12</totfact>
</mgrwt>
</event>
<event>
 4    2  0.2130683E+006  0.2431080E+01  0.7546771E-02  0.2739717E+00
         22   -1    0    0    0    0  0.00000000000E+00  0.00000000000E+00  0.52959441409E+01  0.52959441409E+01  0.00000000000E+00 0. -1.
         22   -1    0    0    0    0 -0.00000000000E+00 -0.00000000000E+00 -0.12049433662E+01  0.12049433662E+01  0.00000000000E+00 0.  1.
          4    1    1    2  501    0 -0.92386852610E+00 -0.22486918693E+01  0.11622700882E+01  0.26946279770E+01  0.00000000000E+00 0.  1.
         -4    1    1    2    0  501  0.92386852610E+00  0.22486918693E+01  0.29287306865E+01  0.38062595301E+01  0.00000000000E+00 0. -1.
<mgrwt>
<rscale>  0 0.24310796E+01</rscale>
<asrwt>0</asrwt>
<pdfrwt beam="1">0</pdfrwt>
<pdfrwt beam="2">0</pdfrwt>
<totfact> 0.27453205E+12</totfact>
</mgrwt>
</event>
<event>
 4    2  0.2130683E+006  0.3499537E+01  0.7546771E-02  0.2384557E+00
         22   -1    0    0    0    0  0.00000000000E+00  0.00000000000E+00  0.40246080677E+01  0.40246080677E+01  0.00000000000E+00 0. -1.
         22   -1    0    0    0    0 -0.00000000000E+00 -0.00000000000E+00 -0.13385196468E+02  0.13385196468E+02  0.00000000000E+00 0.  1.
          4    1    1    2  501    0  0.31857603748E+01  0.14483406586E+01 -0.12332005145E+02  0.12818935631E+02  0.00000000000E+00 0.  1.
         -4    1    1    2    0  501 -0.31857603748E+01 -0.14483406586E+01  0.29714167444E+01  0.45908689044E+01  0.00000000000E+00 0. -1.
<mgrwt>
<rscale>  0 0.34995371E+01</rscale>
<asrwt>0</asrwt>
<pdfrwt beam="1">0</pdfrwt>
<pdfrwt beam="2">0</pdfrwt>
<totfact> 0.22180810E+11</totfact>
</mgrwt>
</event>
<event>
 4    2  0.2130683E+006  0.3372760E+01  0.7546771E-02  0.2416070E+00
         22   -1    0    0    0    0  0.00000000000E+00  0.00000000000E+00  0.53670132353E+02  0.53670132353E+02  0.00000000000E+00 0. -1.
         22   -1    0    0    0    0 -0.00000000000E+00 -0.00000000000E+00 -0.26168015630E+00  0.26168015630E+00  0.00000000000E+00 0.  1.
          4    1    1    2  501    0  0.32861678135E+01 -0.75935095587E+00  0.14949050927E+02  0.15324804612E+02  0.00000000000E+00 0.  1.
         -4    1    1    2    0  501 -0.32861678135E+01  0.75935095587E+00  0.38459401270E+02  0.38607007897E+02  0.00000000000E+00 0. -1.
<mgrwt>
<rscale>  0 0.33727604E+01</rscale>
<asrwt>0</asrwt>
<pdfrwt beam="1">0</pdfrwt>
<pdfrwt beam="2">0</pdfrwt>
<totfact> 0.86845289E+11</totfact>
</mgrwt>
</event>
<event>
 4    2  0.2130683E+006  0.2466840E+01  0.7546771E-02  0.2723332E+00
         22   -1    0    0    0    0  0.00000000000E+00  0.00000000000E+00  0.14905049573E+00  0.14905049573E+00  0.00000000000E+00 0. -1.
         22   -1    0    0    0    0 -0.00000000000E+00 -0.00000000000E+00 -0.64491160726E+02  0.64491160726E+02  0.00000000000E+00 0.  1.
          4    1    1    2  501    0  0.23990127507E+01  0.57448926364E+00 -0.51749007738E+02  0.51807770671E+02  0.00000000000E+00 0.  1.
         -4    1    1    2    0  501 -0.23990127507E+01 -0.57448926364E+00 -0.12593102493E+02  0.12832440550E+02  0.00000000000E+00 0. -1.
<mgrwt>
<rscale>  0 0.24668401E+01</rscale>
<asrwt>0</asrwt>
<pdfrwt beam="1">0</pdfrwt>
<pdfrwt beam="2">0</pdfrwt>
<totfact> 0.12728830E+12</totfact>
</mgrwt>
</event>
<event>
 4    2  0.2130683E+006  0.5751542E+01  0.7546771E-02  0.2042713E+00
         22   -1    0    0    0    0  0.00000000000E+00  0.00000000000E+00  0.17258734120E+01  0.17258734120E+01  0.00000000000E+00 0.  1.
         22   -1    0    0    0    0 -0.00000000000E+00 -0.00000000000E+00 -0.24137691360E+02  0.24137691360E+02  0.00000000000E+00 0. -1.
          4    1    1    2  501    0  0.86735844645E+00  0.56857649112E+01 -0.17074155507E+02  0.18016853765E+02  0.00000000000E+00 0. -1.
         -4    1    1    2    0  501 -0.86735844645E+00 -0.56857649112E+01 -0.53376624411E+01  0.78467110075E+01  0.00000000000E+00 0.  1.
<mgrwt>
<rscale>  0 0.57515418E+01</rscale>
<asrwt>0</asrwt>
<pdfrwt beam="1">0</pdfrwt>
<pdfrwt beam="2">0</pdfrwt>
<totfact> 0.28610416E+11</totfact>
</mgrwt>
</event>
<event>
 4    2  0.2130683E+006  0.2233195E+01  0.7546771E-02  0.2839286E+00
         22   -1    0    0    0    0  0.00000000000E+00  0.00000000000E+00  0.72461256029E+01  0.72461256029E+01  0.00000000000E+00 0. -1.
         22   -1    0    0    0    0 -0.00000000000E+00 -0.00000000000E+00 -0.15089701993E+01  0.15089701993E+01  0.00000000000E+00 0.  1.
          4    1    1    2  501    0 -0.57909418790E+00 -0.21568057128E+01 -0.35982415513E+00  0.22619978744E+01  0.00000000000E+00 0.  1.
         -4    1    1    2    0  501  0.57909418790E+00  0.21568057128E+01  0.60969795586E+01  0.64930979278E+01  0.00000000000E+00 0. -1.
<mgrwt>
<rscale>  0 0.22331952E+01</rscale>
<asrwt>0</asrwt>
<pdfrwt beam="1">0</pdfrwt>
<pdfrwt beam="2">0</pdfrwt>
<totfact> 0.14592398E+12</totfact>
</mgrwt>
</event>
<event>
 4    2  0.2130683E+006  0.2413902E+01  0.7546771E-02  0.2747749E+00
         22   -1    0    0    0    0  0.00000000000E+00  0.00000000000E+00  0.43869081083E+02  0.43869081083E+02  0.00000000000E+00 0.  1.
         22   -1    0    0    0    0 -0.00000000000E+00 -0.00000000000E+00 -0.13295778092E+00  0.13295778092E+00  0.00000000000E+00 0. -1.
          4    1    1    2  501    0 -0.19364148708E+01  0.14412567425E+01  0.21173558820E+02  0.21310713659E+02  0.00000000000E+00 0. -1.
         -4    1    1    2    0  501  0.19364148708E+01 -0.14412567425E+01  0.22562564483E+02  0.22691325205E+02  0.00000000000E+00 0.  1.
<mgrwt>
<rscale>  0 0.24139021E+01</rscale>
<asrwt>0</asrwt>
<pdfrwt beam="1">0</pdfrwt>
<pdfrwt beam="2">0</pdfrwt>
<totfact> 0.24085649E+12</totfact>
</mgrwt>
</event>
<event>
 4    2  0.2130683E+006  0.2400240E+01  0.7546771E-02  0.2754214E+00
         22   -1    0    0    0    0  0.00000000000E+00  0.00000000000E+00  0.88298973122E+00  0.88298973122E+00  0.00000000000E+00 0. -1.
         22   -1    0    0    0    0 -0.00000000000E+00 -0.00000000000E+00 -0.73905509377E+01  0.73905509377E+01  0.00000000000E+00 0.  1.
          4    1    1    2  501    0  0.22991043764E+01  0.68939916084E+00 -0.46698039145E+01  0.52505448037E+01  0.00000000000E+00 0.  1.
         -4    1    1    2    0  501 -0.22991043764E+01 -0.68939916084E+00 -0.18377572920E+01  0.30229958652E+01  0.00000000000E+00 0. -1.
<mgrwt>
<rscale>  0 0.24002400E+01</rscale>
<asrwt>0</asrwt>
<pdfrwt beam="1">0</pdfrwt>
<pdfrwt beam="2">0</pdfrwt>
<totfact> 0.26323088E+12</totfact>
</mgrwt>
</event>
<event>
 4    2  0.2130683E+006  0.3716349E+01  0.7546771E-02  0.2335032E+00
         22   -1    0    0    0    0  0.00000000000E+00  0.00000000000E+00  0.10341981526E+01  0.10341981526E+01  0.00000000000E+00 0.  1.
         22   -1    0    0    0    0 -0.00000000000E+00 -0.00000000000E+00 -0.14230769780E+02  0.14230769780E+02  0.00000000000E+00 0. -1.
          4    1    1    2  501    0  0.36704372249E+01 -0.58235513376E+00 -0.47043764438E+01  0.59951984662E+01  0.00000000000E+00 0.  1.
         -4    1    1    2    0  501 -0.36704372249E+01  0.58235513376E+00 -0.84921951831E+01  0.92697694660E+01  0.00000000000E+00 0. -1.
<mgrwt>
<rscale>  0 0.37163486E+01</rscale>
<asrwt>0</asrwt>
<pdfrwt beam="1">0</pdfrwt>
<pdfrwt beam="2">0</pdfrwt>
<totfact> 0.99321104E+11</totfact>
</mgrwt>
</event>
<event>
 4    2  0.2130683E+006  0.4051122E+01  0.7546771E-02  0.2267628E+00
         22   -1    0    0    0    0  0.00000000000E+00  0.00000000000E+00  0.31890600416E+01  0.31890600416E+01  0.00000000000E+00 0.  1.
         22   -1    0    0    0    0 -0.00000000000E+00 -0.00000000000E+00 -0.63895388490E+01  0.63895388490E+01  0.00000000000E+00 0. -1.
          4    1    1    2  501    0  0.67221867667E+00 -0.39949604098E+01 -0.37128987514E+01  0.54951982460E+01  0.00000000000E+00 0. -1.
         -4    1    1    2    0  501 -0.67221867667E+00  0.39949604098E+01  0.51241994407E+00  0.40834006446E+01  0.00000000000E+00 0.  1.
<mgrwt>
<rscale>  0 0.40511217E+01</rscale>
<asrwt>0</asrwt>
<pdfrwt beam="1">0</pdfrwt>
<pdfrwt beam="2">0</pdfrwt>
<totfact> 0.71199934E+11</totfact>
</mgrwt>
</event>
<event>
 4    2  0.2130683E+006  0.2332529E+01  0.7546771E-02  0.2787307E+00
         22   -1    0    0    0    0  0.00000000000E+00  0.00000000000E+00  0.25839143981E+00  0.25839143981E+00  0.00000000000E+00 0.  1.
         22   -1    0    0    0    0 -0.00000000000E+00 -0.00000000000E+00 -0.33458390479E+02  0.33458390479E+02  0.00000000000E+00 0. -1.
          4    1    1    2  501    0 -0.80555747109E+00  0.21890107975E+01 -0.26863989851E+02  0.26965063357E+02  0.00000000000E+00 0. -1.
         -4    1    1    2    0  501  0.80555747109E+00 -0.21890107975E+01 -0.63360091883E+01  0.67517185623E+01  0.00000000000E+00 0.  1.
<mgrwt>
<rscale>  0 0.23325289E+01</rscale>
<asrwt>0</asrwt>
<pdfrwt beam="1">0</pdfrwt>
<pdfrwt beam="2">0</pdfrwt>
<totfact> 0.16307513E+12</totfact>
</mgrwt>
</event>
<event>
 4    2  0.2130683E+006  0.2562785E+01  0.7546771E-02  0.2681481E+00
         22   -1    0    0    0    0  0.00000000000E+00  0.00000000000E+00  0.31532339389E+02  0.31532339389E+02  0.00000000000E+00 0. -1.
         22   -1    0    0    0    0 -0.00000000000E+00 -0.00000000000E+00 -0.26904415507E+00  0.26904415507E+00  0.00000000000E+00 0.  1.
          4    1    1    2  501    0  0.17680381810E+01 -0.18552379622E+01  0.23187660536E+02  0.23328854838E+02  0.00000000000E+00 0. -1.
         -4    1    1    2    0  501 -0.17680381810E+01  0.18552379622E+01  0.80756346983E+01  0.84725287067E+01  0.00000000000E+00 0.  1.
<mgrwt>
<rscale>  0 0.25627850E+01</rscale>
<asrwt>0</asrwt>
<pdfrwt beam="1">0</pdfrwt>
<pdfrwt beam="2">0</pdfrwt>
<totfact> 0.16816330E+12</totfact>
</mgrwt>
</event>
<event>
 4    2  0.2130683E+006  0.2179142E+01  0.7546771E-02  0.2869466E+00
         22   -1    0    0    0    0  0.00000000000E+00  0.00000000000E+00  0.47001172147E+01  0.47001172147E+01  0.00000000000E+00 0. -1.
         22   -1    0    0    0    0 -0.00000000000E+00 -0.00000000000E+00 -0.11565564729E+01  0.11565564729E+01  0.00000000000E+00 0.  1.
          4    1    1    2  501    0 -0.20432173745E+01  0.75757736896E+00  0.73053432285E+00  0.22983344200E+01  0.00000000000E+00 0.  1.
         -4    1    1    2    0  501  0.20432173745E+01 -0.75757736896E+00  0.28130264189E+01  0.35583392676E+01  0.00000000000E+00 0. -1.
<mgrwt>
<rscale>  0 0.21791422E+01</rscale>
<asrwt>0</asrwt>
<pdfrwt beam="1">0</pdfrwt>
<pdfrwt beam="2">0</pdfrwt>
<totfact> 0.33138569E+12</totfact>
</mgrwt>
</event>
<event>
 4    2  0.2130683E+006  0.2290634E+01  0.7546771E-02  0.2808707E+00
         22   -1    0    0    0    0  0.00000000000E+00  0.00000000000E+00  0.19254474333E+01  0.19254474333E+01  0.00000000000E+00 0.  1.
         22   -1    0    0    0    0 -0.00000000000E+00 -0.00000000000E+00 -0.45195990564E+01  0.45195990564E+01  0.00000000000E+00 0. -1.
          4    1    1    2  501    0  0.53593788208E+00 -0.22270550609E+01  0.73350278471E+00  0.24052089291E+01  0.00000000000E+00 0.  1.
         -4    1    1    2    0  501 -0.53593788208E+00  0.22270550609E+01 -0.33276544078E+01  0.40398375605E+01  0.00000000000E+00 0. -1.
<mgrwt>
<rscale>  0 0.22906339E+01</rscale>
<asrwt>0</asrwt>
<pdfrwt beam="1">0</pdfrwt>
<pdfrwt beam="2">0</pdfrwt>
<totfact> 0.19307897E+12</totfact>
</mgrwt>
</event>
<event>
 4    2  0.2130683E+006  0.2674060E+01  0.7546771E-02  0.2636435E+00
         22   -1    0    0    0    0  0.00000000000E+00  0.00000000000E+00  0.21278081284E+02  0.21278081284E+02  0.00000000000E+00 0.  1.
         22   -1    0    0    0    0 -0.00000000000E+00 -0.00000000000E+00 -0.36334111144E+00  0.36334111144E+00  0.00000000000E+00 0. -1.
          4    1    1    2  501    0 -0.21266010011E+01 -0.16211612314E+01  0.13422700684E+02  0.13686471028E+02  0.00000000000E+00 0.  1.
         -4    1    1    2    0  501  0.21266010011E+01  0.16211612314E+01  0.74920394894E+01  0.79549513680E+01  0.00000000000E+00 0. -1.
<mgrwt>
<rscale>  0 0.26740598E+01</rscale>
<asrwt>0</asrwt>
<pdfrwt beam="1">0</pdfrwt>
<pdfrwt beam="2">0</pdfrwt>
<totfact> 0.19736446E+12</totfact>
</mgrwt>
</event>
<event>
 4    2  0.2130683E+006  0.2868788E+01  0.7546771E-02  0.2565344E+00
         22   -1    0    0    0    0  0.00000000000E+00  0.00000000000E+00  0.11037116270E+02  0.11037116270E+02  0.00000000000E+00 0.  1.
         22   -1    0    0    0    0 -0.00000000000E+00 -0.00000000000E+00 -0.11998875782E+01  0.11998875782E+01  0.00000000000E+00 0. -1.
          4    1    1    2  501    0 -0.11500505613E+01 -0.26281800596E+01  0.11540813121E+01  0.30922241824E+01  0.00000000000E+00 0. -1.
         -4    1    1    2    0  501  0.11500505613E+01  0.26281800596E+01  0.86831473796E+01  0.91447796658E+01  0.00000000000E+00 0.  1.
<mgrwt>
<rscale>  0 0.28687884E+01</rscale>
<asrwt>0</asrwt>
<pdfrwt beam="1">0</pdfrwt>
<pdfrwt beam="2">0</pdfrwt>
<totfact> 0.11429192E+12</totfact>
</mgrwt>
</event>
<event>
 4    2  0.2130683E+006  0.2427335E+01  0.7546771E-02  0.2741459E+00
         22   -1    0    0    0    0  0.00000000000E+00  0.00000000000E+00  0.10934654684E+03  0.10934654684E+03  0.00000000000E+00 0.  1.
         22   -1    0    0    0    0 -0.00000000000E+00 -0.00000000000E+00 -0.54585106228E-01  0.54585106228E-01  0.00000000000E+00 0. -1.
          4    1    1    2  501    0  0.17681695820E+01 -0.16629890851E+01  0.48443674468E+02  0.48504448789E+02  0.00000000000E+00 0.  1.
         -4    1    1    2    0  501 -0.17681695820E+01  0.16629890851E+01  0.60848287264E+02  0.60896683155E+02  0.00000000000E+00 0. -1.
<mgrwt>
<rscale>  0 0.24273352E+01</rscale>
<asrwt>0</asrwt>
<pdfrwt beam="1">0</pdfrwt>
<pdfrwt beam="2">0</pdfrwt>
<totfact> 0.18632522E+12</totfact>
</mgrwt>
</event>
<event>
 4    2  0.2130683E+006  0.2785813E+01  0.7546771E-02  0.2594529E+00
         22   -1    0    0    0    0  0.00000000000E+00  0.00000000000E+00  0.11070916734E+01  0.11070916734E+01  0.00000000000E+00 0.  1.
         22   -1    0    0    0    0 -0.00000000000E+00 -0.00000000000E+00 -0.81321504592E+01  0.81321504592E+01  0.00000000000E+00 0. -1.
          4    1    1    2  501    0  0.14895702570E+00  0.27818273912E+01 -0.52285493902E+01  0.59243970626E+01  0.00000000000E+00 0. -1.
         -4    1    1    2    0  501 -0.14895702570E+00 -0.27818273912E+01 -0.17965093956E+01  0.33148450700E+01  0.00000000000E+00 0.  1.
<mgrwt>
<rscale>  0 0.27858126E+01</rscale>
<asrwt>0</asrwt>
<pdfrwt beam="1">0</pdfrwt>
<pdfrwt beam="2">0</pdfrwt>
<totfact> 0.18128242E+12</totfact>
</mgrwt>
</event>
<event>
 4    2  0.2130683E+006  0.2061261E+01  0.7546771E-02  0.2940566E+00
         22   -1    0    0    0    0  0.00000000000E+00  0.00000000000E+00  0.18883498692E+00  0.18883498692E+00  0.00000000000E+00 0. -1.
         22   -1    0    0    0    0 -0.00000000000E+00 -0.00000000000E+00 -0.28010211446E+02  0.28010211446E+02  0.00000000000E+00 0.  1.
          4    1    1    2  501    0  0.18398433297E+01 -0.92939387847E+00 -0.76571121963E+01  0.79297013592E+01  0.00000000000E+00 0.  1.
         -4    1    1    2    0  501 -0.18398433297E+01  0.92939387847E+00 -0.20164264263E+02  0.20269345074E+02  0.00000000000E+00 0. -1.
<mgrwt>
<rscale>  0 0.20612609E+01</rscale>
<asrwt>0</asrwt>
<pdfrwt beam="1">0</pdfrwt>
<pdfrwt beam="2">0</pdfrwt>
<totfact> 0.29038214E+12</totfact>
</mgrwt>
</event>
<event>
 4    2  0.2130683E+006  0.2114849E+01  0.7546771E-02  0.2907294E+00
         22   -1    0    0    0    0  0.00000000000E+00  0.00000000000E+00  0.12945683487E+00  0.12945683487E+00  0.00000000000E+00 0. -1.
         22   -1    0    0    0    0 -0.00000000000E+00 -0.00000000000E+00 -0.53487199522E+02  0.53487199522E+02  0.00000000000E+00 0.  1.
          4    1    1    2  501    0  0.60523652259E+00  0.20263942708E+01 -0.42630897232E+02  0.42683322080E+02  0.00000000000E+00 0.  1.
         -4    1    1    2    0  501 -0.60523652259E+00 -0.20263942708E+01 -0.10726845455E+02  0.10933334276E+02  0.00000000000E+00 0. -1.
<mgrwt>
<rscale>  0 0.21148487E+01</rscale>
<asrwt>0</asrwt>
<pdfrwt beam="1">0</pdfrwt>
<pdfrwt beam="2">0</pdfrwt>
<totfact> 0.19112262E+12</totfact>
</mgrwt>
</event>
<event>
 4    2  0.2130683E+006  0.3854394E+01  0.7546771E-02  0.2306022E+00
         22   -1    0    0    0    0  0.00000000000E+00  0.00000000000E+00  0.26337306013E+01  0.26337306013E+01  0.00000000000E+00 0. -1.
         22   -1    0    0    0    0 -0.00000000000E+00 -0.00000000000E+00 -0.63506492671E+01  0.63506492671E+01  0.00000000000E+00 0.  1.
          4    1    1    2  501    0 -0.38524862636E+01 -0.12124734252E+00 -0.33603270405E+01  0.51135260974E+01  0.00000000000E+00 0.  1.
         -4    1    1    2    0  501  0.38524862636E+01  0.12124734252E+00 -0.35659162522E+00  0.38708537710E+01  0.00000000000E+00 0. -1.
<mgrwt>
<rscale>  0 0.38543938E+01</rscale>
<asrwt>0</asrwt>
<pdfrwt beam="1">0</pdfrwt>
<pdfrwt beam="2">0</pdfrwt>
<totfact> 0.89666092E+11</totfact>
</mgrwt>
</event>
<event>
 4    2  0.2130683E+006  0.2904895E+01  0.7546771E-02  0.2553116E+00
         22   -1    0    0    0    0  0.00000000000E+00  0.00000000000E+00  0.12502839735E+01  0.12502839735E+01  0.00000000000E+00 0.  1.
         22   -1    0    0    0    0 -0.00000000000E+00 -0.00000000000E+00 -0.81109498545E+01  0.81109498545E+01  0.00000000000E+00 0. -1.
          4    1    1    2  501    0 -0.27916496489E+01  0.80318630866E+00 -0.53481888847E+01  0.60861761686E+01  0.00000000000E+00 0. -1.
         -4    1    1    2    0  501  0.27916496489E+01 -0.80318630866E+00 -0.15124769963E+01  0.32750576595E+01  0.00000000000E+00 0.  1.
<mgrwt>
<rscale>  0 0.29048952E+01</rscale>
<asrwt>0</asrwt>
<pdfrwt beam="1">0</pdfrwt>
<pdfrwt beam="2">0</pdfrwt>
<totfact> 0.15820443E+12</totfact>
</mgrwt>
</event>
<event>
 4    2  0.2130683E+006  0.2145898E+01  0.7546771E-02  0.2888753E+00
         22   -1    0    0    0    0  0.00000000000E+00  0.00000000000E+00  0.31648795324E+02  0.31648795324E+02  0.00000000000E+00 0. -1.
         22   -1    0    0    0    0 -0.00000000000E+00 -0.00000000000E+00 -0.37189421750E+00  0.37189421750E+00  0.00000000000E+00 0.  1.
          4    1    1    2  501    0  0.24312606353E-01  0.21457605722E+01  0.31466728231E+01  0.38087306798E+01  0.00000000000E+00 0.  1.
         -4    1    1    2    0  501 -0.24312606353E-01 -0.21457605722E+01  0.28130228283E+02  0.28211958861E+02  0.00000000000E+00 0. -1.
<mgrwt>
<rscale>  0 0.21458983E+01</rscale>
<asrwt>0</asrwt>
<pdfrwt beam="1">0</pdfrwt>
<pdfrwt beam="2">0</pdfrwt>
<totfact> 0.11638630E+12</totfact>
</mgrwt>
</event>
<event>
 4    2  0.2130683E+006  0.2140509E+01  0.7546771E-02  0.2891933E+00
         22   -1    0    0    0    0  0.00000000000E+00  0.00000000000E+00  0.33711206151E+00  0.33711206151E+00  0.00000000000E+00 0. -1.
         22   -1    0    0    0    0 -0.00000000000E+00 -0.00000000000E+00 -0.14436806328E+02  0.14436806328E+02  0.00000000000E+00 0.  1.
          4    1    1    2  501    0 -0.16374329692E+01 -0.13786202383E+01 -0.88375555951E+01  0.90930836016E+01  0.00000000000E+00 0.  1.
         -4    1    1    2    0  501  0.16374329692E+01  0.13786202383E+01 -0.52621386715E+01  0.56808347880E+01  0.00000000000E+00 0. -1.
<mgrwt>
<rscale>  0 0.21405094E+01</rscale>
<asrwt>0</asrwt>
<pdfrwt beam="1">0</pdfrwt>
<pdfrwt beam="2">0</pdfrwt>
<totfact> 0.34720411E+12</totfact>
</mgrwt>
</event>
<event>
 4    2  0.2130683E+006  0.2154715E+01  0.7546771E-02  0.2883582E+00
         22   -1    0    0    0    0  0.00000000000E+00  0.00000000000E+00  0.73658144837E+01  0.73658144837E+01  0.00000000000E+00 0. -1.
         22   -1    0    0    0    0 -0.00000000000E+00 -0.00000000000E+00 -0.79778145895E+00  0.79778145895E+00  0.00000000000E+00 0.  1.
          4    1    1    2  501    0 -0.17200341788E+01  0.12977974120E+01  0.14138887302E+01  0.25771839360E+01  0.00000000000E+00 0.  1.
         -4    1    1    2    0  501  0.17200341788E+01 -0.12977974120E+01  0.51541442945E+01  0.55864120066E+01  0.00000000000E+00 0. -1.
<mgrwt>
<rscale>  0 0.21547148E+01</rscale>
<asrwt>0</asrwt>
<pdfrwt beam="1">0</pdfrwt>
<pdfrwt beam="2">0</pdfrwt>
<totfact> 0.29664737E+12</totfact>
</mgrwt>
</event>
<event>
 4    2  0.2130683E+006  0.2368533E+01  0.7546771E-02  0.2769489E+00
         22   -1    0    0    0    0  0.00000000000E+00  0.00000000000E+00  0.14824324515E+01  0.14824324515E+01  0.00000000000E+00 0. -1.
         22   -1    0    0    0    0 -0.00000000000E+00 -0.00000000000E+00 -0.42004816645E+01  0.42004816645E+01  0.00000000000E+00 0.  1.
          4    1    1    2  501    0  0.10225441013E+01 -0.21364346163E+01 -0.22534415066E+01  0.32692427155E+01  0.00000000000E+00 0.  1.
         -4    1    1    2    0  501 -0.10225441013E+01  0.21364346163E+01 -0.46460770635E+00  0.24136714005E+01  0.00000000000E+00 0. -1.
<mgrwt>
<rscale>  0 0.23685332E+01</rscale>
<asrwt>0</asrwt>
<pdfrwt beam="1">0</pdfrwt>
<pdfrwt beam="2">0</pdfrwt>
<totfact> 0.28459260E+12</totfact>
</mgrwt>
</event>
<event>
 4    2  0.2130683E+006  0.2486126E+01  0.7546771E-02  0.2714678E+00
         22   -1    0    0    0    0  0.00000000000E+00  0.00000000000E+00  0.37787591142E+01  0.37787591142E+01  0.00000000000E+00 0.  1.
         22   -1    0    0    0    0 -0.00000000000E+00 -0.00000000000E+00 -0.49120339827E+01  0.49120339827E+01  0.00000000000E+00 0. -1.
          4    1    1    2  501    0 -0.11120114419E+00 -0.24836378496E+01 -0.41155431290E+01  0.48081719925E+01  0.00000000000E+00 0. -1.
         -4    1    1    2    0  501  0.11120114419E+00  0.24836378496E+01  0.29822682606E+01  0.38826211044E+01  0.00000000000E+00 0.  1.
<mgrwt>
<rscale>  0 0.24861260E+01</rscale>
<asrwt>0</asrwt>
<pdfrwt beam="1">0</pdfrwt>
<pdfrwt beam="2">0</pdfrwt>
<totfact> 0.79753447E+11</totfact>
</mgrwt>
</event>
<event>
 4    2  0.2130683E+006  0.4805142E+01  0.7546771E-02  0.2147007E+00
         22   -1    0    0    0    0  0.00000000000E+00  0.00000000000E+00  0.47458184131E+01  0.47458184131E+01  0.00000000000E+00 0. -1.
         22   -1    0    0    0    0 -0.00000000000E+00 -0.00000000000E+00 -0.26115772866E+02  0.26115772866E+02  0.00000000000E+00 0.  1.
          4    1    1    2  501    0  0.33647129244E+01  0.34304656073E+01 -0.24604429019E+02  0.25069250382E+02  0.00000000000E+00 0.  1.
         -4    1    1    2    0  501 -0.33647129244E+01 -0.34304656073E+01  0.32344745665E+01  0.57923408971E+01  0.00000000000E+00 0. -1.
<mgrwt>
<rscale>  0 0.48051418E+01</rscale>
<asrwt>0</asrwt>
<pdfrwt beam="1">0</pdfrwt>
<pdfrwt beam="2">0</pdfrwt>
<totfact> 0.79539788E+10</totfact>
</mgrwt>
</event>
<event>
 4    2  0.2130683E+006  0.3113434E+01  0.7546771E-02  0.2487505E+00
         22   -1    0    0    0    0  0.00000000000E+00  0.00000000000E+00  0.29644716766E+02  0.29644716766E+02  0.00000000000E+00 0. -1.
         22   -1    0    0    0    0 -0.00000000000E+00 -0.00000000000E+00 -0.42315646710E+00  0.42315646710E+00  0.00000000000E+00 0.  1.
          4    1    1    2  501    0  0.18597395552E+01 -0.24969664290E+01  0.21777791955E+02  0.21999220327E+02  0.00000000000E+00 0. -1.
         -4    1    1    2    0  501 -0.18597395552E+01  0.24969664290E+01  0.74437683436E+01  0.80686529058E+01  0.00000000000E+00 0.  1.
<mgrwt>
<rscale>  0 0.31134342E+01</rscale>
<asrwt>0</asrwt>
<pdfrwt beam="1">0</pdfrwt>
<pdfrwt beam="2">0</pdfrwt>
<totfact> 0.10941367E+12</totfact>
</mgrwt>
</event>
<event>
 4    2  0.2130683E+006  0.2336239E+01  0.7546771E-02  0.2785447E+00
         22   -1    0    0    0    0  0.00000000000E+00  0.00000000000E+00  0.18658483447E+00  0.18658483447E+00  0.00000000000E+00 0. -1.
         22   -1    0    0    0    0 -0.00000000000E+00 -0.00000000000E+00 -0.33262305371E+02  0.33262305371E+02  0.00000000000E+00 0.  1.
          4    1    1    2  501    0 -0.19395925540E+01  0.13023029433E+01 -0.22344899896E+02  0.22466698992E+02  0.00000000000E+00 0.  1.
         -4    1    1    2    0  501  0.19395925540E+01 -0.13023029433E+01 -0.10730820641E+02  0.10982191214E+02  0.00000000000E+00 0. -1.
<mgrwt>
<rscale>  0 0.23362389E+01</rscale>
<asrwt>0</asrwt>
<pdfrwt beam="1">0</pdfrwt>
<pdfrwt beam="2">0</pdfrwt>
<totfact> 0.23636548E+12</totfact>
</mgrwt>
</event>
<event>
 4    2  0.2130683E+006  0.3166410E+01  0.7546771E-02  0.2472072E+00
         22   -1    0    0    0    0  0.00000000000E+00  0.00000000000E+00  0.51025149349E+01  0.51025149349E+01  0.00000000000E+00 0.  1.
         22   -1    0    0    0    0 -0.00000000000E+00 -0.00000000000E+00 -0.21437473715E+01  0.21437473715E+01  0.00000000000E+00 0. -1.
          4    1    1    2  501    0  0.25750137100E+01  0.18426766777E+01  0.43301239081E+00  0.31958805791E+01  0.00000000000E+00 0.  1.
         -4    1    1    2    0  501 -0.25750137100E+01 -0.18426766777E+01  0.25257551726E+01  0.40503817273E+01  0.00000000000E+00 0. -1.
<mgrwt>
<rscale>  0 0.31664101E+01</rscale>
<asrwt>0</asrwt>
<pdfrwt beam="1">0</pdfrwt>
<pdfrwt beam="2">0</pdfrwt>
<totfact> 0.14772156E+12</totfact>
</mgrwt>
</event>
<event>
 4    2  0.2130683E+006  0.2005357E+01  0.7546771E-02  0.2977121E+00
         22   -1    0    0    0    0  0.00000000000E+00  0.00000000000E+00  0.21457901626E+01  0.21457901626E+01  0.00000000000E+00 0.  1.
         22   -1    0    0    0    0 -0.00000000000E+00 -0.00000000000E+00 -0.20032605101E+01  0.20032605101E+01  0.00000000000E+00 0. -1.
          4    1    1    2  501    0  0.13991619777E+01  0.14365937926E+01 -0.45546863864E+00  0.20564308025E+01  0.00000000000E+00 0. -1.
         -4    1    1    2    0  501 -0.13991619777E+01 -0.14365937926E+01  0.59799829117E+00  0.20926198702E+01  0.00000000000E+00 0.  1.
<mgrwt>
<rscale>  0 0.20053568E+01</rscale>
<asrwt>0</asrwt>
<pdfrwt beam="1">0</pdfrwt>
<pdfrwt beam="2">0</pdfrwt>
<totfact> 0.44069727E+12</totfact>
</mgrwt>
</event>
<event>
 4    2  0.2130683E+006  0.2345163E+01  0.7546771E-02  0.2780996E+00
         22   -1    0    0    0    0  0.00000000000E+00  0.00000000000E+00  0.12770194438E+01  0.12770194438E+01  0.00000000000E+00 0. -1.
         22   -1    0    0    0    0 -0.00000000000E+00 -0.00000000000E+00 -0.48778207509E+01  0.48778207509E+01  0.00000000000E+00 0.  1.
          4    1    1    2  501    0  0.22410398088E+01 -0.69103672525E+00 -0.28533863962E+01  0.36934543596E+01  0.00000000000E+00 0. -1.
         -4    1    1    2    0  501 -0.22410398088E+01  0.69103672525E+00 -0.74741491082E+00  0.24613858351E+01  0.00000000000E+00 0.  1.
<mgrwt>
<rscale>  0 0.23451634E+01</rscale>
<asrwt>0</asrwt>
<pdfrwt beam="1">0</pdfrwt>
<pdfrwt beam="2">0</pdfrwt>
<totfact> 0.28312156E+12</totfact>
</mgrwt>
</event>
<event>
 4    2  0.2130683E+006  0.2193988E+01  0.7546771E-02  0.2861035E+00
         22   -1    0    0    0    0  0.00000000000E+00  0.00000000000E+00  0.19495946568E+01  0.19495946568E+01  0.00000000000E+00 0.  1.
         22   -1    0    0    0    0 -0.00000000000E+00 -0.00000000000E+00 -0.40452561775E+01  0.40452561775E+01  0.00000000000E+00 0. -1.
          4    1    1    2  501    0 -0.55847236518E+00 -0.21217189354E+01 -0.29188851421E+01  0.36515028545E+01  0.00000000000E+00 0. -1.
         -4    1    1    2    0  501  0.55847236518E+00  0.21217189354E+01  0.82322362150E+00  0.23433479798E+01  0.00000000000E+00 0.  1.
<mgrwt>
<rscale>  0 0.21939878E+01</rscale>
<asrwt>0</asrwt>
<pdfrwt beam="1">0</pdfrwt>
<pdfrwt beam="2">0</pdfrwt>
<totfact> 0.21688702E+12</totfact>
</mgrwt>
</event>
<event>
 4    2  0.2130683E+006  0.2084865E+01  0.7546771E-02  0.2925705E+00
         22   -1    0    0    0    0  0.00000000000E+00  0.00000000000E+00  0.85865496287E+01  0.85865496287E+01  0.00000000000E+00 0. -1.
         22   -1    0    0    0    0 -0.00000000000E+00 -0.00000000000E+00 -0.11458911060E+01  0.11458911060E+01  0.00000000000E+00 0.  1.
          4    1    1    2  501    0 -0.33654316130E+00  0.20575233107E+01  0.84535476945E-01  0.20865784722E+01  0.00000000000E+00 0.  1.
         -4    1    1    2    0  501  0.33654316130E+00 -0.20575233107E+01  0.73561230458E+01  0.76458622626E+01  0.00000000000E+00 0. -1.
<mgrwt>
<rscale>  0 0.20848653E+01</rscale>
<asrwt>0</asrwt>
<pdfrwt beam="1">0</pdfrwt>
<pdfrwt beam="2">0</pdfrwt>
<totfact> 0.16322503E+12</totfact>
</mgrwt>
</event>
<event>
 4    2  0.2130683E+006  0.3743799E+01  0.7546771E-02  0.2329117E+00
         22   -1    0    0    0    0  0.00000000000E+00  0.00000000000E+00  0.17738198090E+02  0.17738198090E+02  0.00000000000E+00 0. -1.
         22   -1    0    0    0    0 -0.00000000000E+00 -0.00000000000E+00 -0.25952059223E+01  0.25952059223E+01  0.00000000000E+00 0.  1.
          4    1    1    2  501    0 -0.32885090365E+01  0.17893400770E+01 -0.90737844176E+00  0.38521896671E+01  0.00000000000E+00 0.  1.
         -4    1    1    2    0  501  0.32885090365E+01 -0.17893400770E+01  0.16050370609E+02  0.16481214345E+02  0.00000000000E+00 0. -1.
<mgrwt>
<rscale>  0 0.37437988E+01</rscale>
<asrwt>0</asrwt>
<pdfrwt beam="1">0</pdfrwt>
<pdfrwt beam="2">0</pdfrwt>
<totfact> 0.26201710E+11</totfact>
</mgrwt>
</event>
<event>
 4    2  0.2130683E+006  0.2575714E+01  0.7546771E-02  0.2676063E+00
         22   -1    0    0    0    0  0.00000000000E+00  0.00000000000E+00  0.76521986040E+01  0.76521986040E+01  0.00000000000E+00 0.  1.
         22   -1    0    0    0    0 -0.00000000000E+00 -0.00000000000E+00 -0.89780718889E+00  0.89780718889E+00  0.00000000000E+00 0. -1.
          4    1    1    2  501    0 -0.24446465398E+01  0.81117466673E+00  0.25850341375E+01  0.36492057406E+01  0.00000000000E+00 0. -1.
         -4    1    1    2    0  501  0.24446465398E+01 -0.81117466673E+00  0.41693572775E+01  0.49008000523E+01  0.00000000000E+00 0.  1.
<mgrwt>
<rscale>  0 0.25757137E+01</rscale>
<asrwt>0</asrwt>
<pdfrwt beam="1">0</pdfrwt>
<pdfrwt beam="2">0</pdfrwt>
<totfact> 0.24773711E+12</totfact>
</mgrwt>
</event>
<event>
 4    2  0.2130683E+006  0.3001163E+01  0.7546771E-02  0.2521813E+00
         22   -1    0    0    0    0  0.00000000000E+00  0.00000000000E+00  0.49910265337E+02  0.49910265337E+02  0.00000000000E+00 0.  1.
         22   -1    0    0    0    0 -0.00000000000E+00 -0.00000000000E+00 -0.56203787095E+00  0.56203787095E+00  0.00000000000E+00 0. -1.
          4    1    1    2  501    0 -0.28772783105E+01 -0.85337513736E+00  0.38805008653E+01  0.49056362040E+01  0.00000000000E+00 0. -1.
         -4    1    1    2    0  501  0.28772783105E+01  0.85337513736E+00  0.45467726601E+02  0.45566667004E+02  0.00000000000E+00 0.  1.
<mgrwt>
<rscale>  0 0.30011630E+01</rscale>
<asrwt>0</asrwt>
<pdfrwt beam="1">0</pdfrwt>
<pdfrwt beam="2">0</pdfrwt>
<totfact> 0.40452504E+11</totfact>
</mgrwt>
</event>
<event>
 4    2  0.2130683E+006  0.2647045E+01  0.7546771E-02  0.2647050E+00
         22   -1    0    0    0    0  0.00000000000E+00  0.00000000000E+00  0.24539050019E+00  0.24539050019E+00  0.00000000000E+00 0.  1.
         22   -1    0    0    0    0 -0.00000000000E+00 -0.00000000000E+00 -0.37146915654E+02  0.37146915654E+02  0.00000000000E+00 0. -1.
          4    1    1    2  501    0  0.30267750679E-01 -0.26468718815E+01 -0.27442934348E+02  0.27570300915E+02  0.00000000000E+00 0. -1.
         -4    1    1    2    0  501 -0.30267750679E-01  0.26468718815E+01 -0.94585908053E+01  0.98220052390E+01  0.00000000000E+00 0.  1.
<mgrwt>
<rscale>  0 0.26470449E+01</rscale>
<asrwt>0</asrwt>
<pdfrwt beam="1">0</pdfrwt>
<pdfrwt beam="2">0</pdfrwt>
<totfact> 0.15101720E+12</totfact>
</mgrwt>
</event>
<event>
 4    2  0.2130683E+006  0.3175909E+01  0.7546771E-02  0.2469353E+00
         22   -1    0    0    0    0  0.00000000000E+00  0.00000000000E+00  0.34484851331E+01  0.34484851331E+01  0.00000000000E+00 0. -1.
         22   -1    0    0    0    0 -0.00000000000E+00 -0.00000000000E+00 -0.30325544658E+01  0.30325544658E+01  0.00000000000E+00 0.  1.
          4    1    1    2  501    0  0.23548869197E+01  0.21309399574E+01  0.81858562771E+00  0.32797072944E+01  0.00000000000E+00 0. -1.
         -4    1    1    2    0  501 -0.23548869197E+01 -0.21309399574E+01 -0.40265496043E+00  0.32013323045E+01  0.00000000000E+00 0.  1.
<mgrwt>
<rscale>  0 0.31759089E+01</rscale>
<asrwt>0</asrwt>
<pdfrwt beam="1">0</pdfrwt>
<pdfrwt beam="2">0</pdfrwt>
<totfact> 0.15654473E+12</totfact>
</mgrwt>
</event>
<event>
 4    2  0.2130683E+006  0.5057069E+01  0.7546771E-02  0.2116253E+00
         22   -1    0    0    0    0  0.00000000000E+00  0.00000000000E+00  0.84455646888E+01  0.84455646888E+01  0.00000000000E+00 0.  1.
         22   -1    0    0    0    0 -0.00000000000E+00 -0.00000000000E+00 -0.31173988477E+01  0.31173988477E+01  0.00000000000E+00 0. -1.
          4    1    1    2  501    0 -0.37229939047E+01 -0.34224641340E+01  0.36426398052E+01  0.62323967391E+01  0.00000000000E+00 0. -1.
         -4    1    1    2    0  501  0.37229939047E+01  0.34224641340E+01  0.16855260360E+01  0.53305667974E+01  0.00000000000E+00 0.  1.
<mgrwt>
<rscale>  0 0.50570688E+01</rscale>
<asrwt>0</asrwt>
<pdfrwt beam="1">0</pdfrwt>
<pdfrwt beam="2">0</pdfrwt>
<totfact> 0.52344090E+11</totfact>
</mgrwt>
</event>
<event>
 4    2  0.2130683E+006  0.2302494E+01  0.7546771E-02  0.2802574E+00
         22   -1    0    0    0    0  0.00000000000E+00  0.00000000000E+00  0.46770875050E+00  0.46770875050E+00  0.00000000000E+00 0. -1.
         22   -1    0    0    0    0 -0.00000000000E+00 -0.00000000000E+00 -0.13131279486E+02  0.13131279486E+02  0.00000000000E+00 0.  1.
          4    1    1    2  501    0 -0.22558473668E+01  0.46111725276E+00 -0.88466268168E+01  0.91413501464E+01  0.00000000000E+00 0. -1.
         -4    1    1    2    0  501  0.22558473668E+01 -0.46111725276E+00 -0.38169439183E+01  0.44576380897E+01  0.00000000000E+00 0.  1.
<mgrwt>
<rscale>  0 0.23024935E+01</rscale>
<asrwt>0</asrwt>
<pdfrwt beam="1">0</pdfrwt>
<pdfrwt beam="2">0</pdfrwt>
<totfact> 0.26978775E+12</totfact>
</mgrwt>
</event>
<event>
 4    2  0.2130683E+006  0.2811249E+01  0.7546771E-02  0.2585416E+00
         22   -1    0    0    0    0  0.00000000000E+00  0.00000000000E+00  0.15942918574E+01  0.15942918574E+01  0.00000000000E+00 0.  1.
         22   -1    0    0    0    0 -0.00000000000E+00 -0.00000000000E+00 -0.13895286743E+02  0.13895286743E+02  0.00000000000E+00 0. -1.
          4    1    1    2  501    0 -0.20541524515E+01  0.19192658578E+01 -0.12362042715E+02  0.12677666339E+02  0.00000000000E+00 0. -1.
         -4    1    1    2    0  501  0.20541524515E+01 -0.19192658578E+01  0.61047829244E-01  0.28119122612E+01  0.00000000000E+00 0.  1.
<mgrwt>
<rscale>  0 0.28112495E+01</rscale>
<asrwt>0</asrwt>
<pdfrwt beam="1">0</pdfrwt>
<pdfrwt beam="2">0</pdfrwt>
<totfact> 0.62246230E+11</totfact>
</mgrwt>
</event>
<event>
 4    2  0.2130683E+006  0.2981227E+01  0.7546771E-02  0.2528146E+00
         22   -1    0    0    0    0  0.00000000000E+00  0.00000000000E+00  0.60850866966E+00  0.60850866966E+00  0.00000000000E+00 0.  1.
         22   -1    0    0    0    0 -0.00000000000E+00 -0.00000000000E+00 -0.36382847058E+02  0.36382847058E+02  0.00000000000E+00 0. -1.
          4    1    1    2  501    0 -0.28095537455E+01  0.99705592919E+00 -0.32196591939E+02  0.32334319929E+02  0.00000000000E+00 0. -1.
         -4    1    1    2    0  501  0.28095537455E+01 -0.99705592919E+00 -0.35777464491E+01  0.46570357985E+01  0.00000000000E+00 0.  1.
<mgrwt>
<rscale>  0 0.29812267E+01</rscale>
<asrwt>0</asrwt>
<pdfrwt beam="1">0</pdfrwt>
<pdfrwt beam="2">0</pdfrwt>
<totfact> 0.55832645E+11</totfact>
</mgrwt>
</event>
<event>
 4    2  0.2130683E+006  0.3081346E+01  0.7546771E-02  0.2497083E+00
         22   -1    0    0    0    0  0.00000000000E+00  0.00000000000E+00  0.81106014521E+01  0.81106014521E+01  0.00000000000E+00 0. -1.
         22   -1    0    0    0    0 -0.00000000000E+00 -0.00000000000E+00 -0.16412054763E+01  0.16412054763E+01  0.00000000000E+00 0.  1.
          4    1    1    2  501    0 -0.24270558095E+01 -0.18984457380E+01  0.58455236195E+01  0.66079378409E+01  0.00000000000E+00 0. -1.
         -4    1    1    2    0  501  0.24270558095E+01  0.18984457380E+01  0.62387235630E+00  0.31438690875E+01  0.00000000000E+00 0.  1.
<mgrwt>
<rscale>  0 0.30813465E+01</rscale>
<asrwt>0</asrwt>
<pdfrwt beam="1">0</pdfrwt>
<pdfrwt beam="2">0</pdfrwt>
<totfact> 0.11572074E+12</totfact>
</mgrwt>
</event>
<event>
 4    2  0.2130683E+006  0.2085282E+01  0.7546771E-02  0.2925446E+00
         22   -1    0    0    0    0  0.00000000000E+00  0.00000000000E+00  0.10499968930E+01  0.10499968930E+01  0.00000000000E+00 0. -1.
         22   -1    0    0    0    0 -0.00000000000E+00 -0.00000000000E+00 -0.43175022349E+01  0.43175022349E+01  0.00000000000E+00 0.  1.
          4    1    1    2  501    0 -0.19266295703E+01 -0.79780877582E+00 -0.21758469392E+01  0.30137535146E+01  0.00000000000E+00 0.  1.
         -4    1    1    2    0  501  0.19266295703E+01  0.79780877582E+00 -0.10916584027E+01  0.23537456133E+01  0.00000000000E+00 0. -1.
<mgrwt>
<rscale>  0 0.20852818E+01</rscale>
<asrwt>0</asrwt>
<pdfrwt beam="1">0</pdfrwt>
<pdfrwt beam="2">0</pdfrwt>
<totfact> 0.40914683E+12</totfact>
</mgrwt>
</event>
<event>
 4    2  0.2130683E+006  0.2367872E+01  0.7546771E-02  0.2769811E+00
         22   -1    0    0    0    0  0.00000000000E+00  0.00000000000E+00  0.58990140388E-01  0.58990140388E-01  0.00000000000E+00 0. -1.
         22   -1    0    0    0    0 -0.00000000000E+00 -0.00000000000E+00 -0.11267052756E+03  0.11267052756E+03  0.00000000000E+00 0.  1.
          4    1    1    2  501    0 -0.14393538309E+01 -0.18801801508E+01 -0.78597966292E+02  0.78633625900E+02  0.00000000000E+00 0.  1.
         -4    1    1    2    0  501  0.14393538309E+01  0.18801801508E+01 -0.34013571123E+02  0.34095891797E+02  0.00000000000E+00 0. -1.
<mgrwt>
<rscale>  0 0.23678718E+01</rscale>
<asrwt>0</asrwt>
<pdfrwt beam="1">0</pdfrwt>
<pdfrwt beam="2">0</pdfrwt>
<totfact> 0.16391343E+12</totfact>
</mgrwt>
</event>
<event>
 4    2  0.2130683E+006  0.2199463E+01  0.7546771E-02  0.2857954E+00
         22   -1    0    0    0    0  0.00000000000E+00  0.00000000000E+00  0.15041128765E+02  0.15041128765E+02  0.00000000000E+00 0. -1.
         22   -1    0    0    0    0 -0.00000000000E+00 -0.00000000000E+00 -0.51950789650E+00  0.51950789650E+00  0.00000000000E+00 0.  1.
          4    1    1    2  501    0  0.21914062565E+01 -0.18807972758E+00  0.24590215624E+01  0.32991548022E+01  0.00000000000E+00 0.  1.
         -4    1    1    2    0  501 -0.21914062565E+01  0.18807972758E+00  0.12062599306E+02  0.12261481859E+02  0.00000000000E+00 0. -1.
<mgrwt>
<rscale>  0 0.21994625E+01</rscale>
<asrwt>0</asrwt>
<pdfrwt beam="1">0</pdfrwt>
<pdfrwt beam="2">0</pdfrwt>
<totfact> 0.20283324E+12</totfact>
</mgrwt>
</event>
<event>
 4    2  0.2130683E+006  0.2277496E+01  0.7546771E-02  0.2815572E+00
         22   -1    0    0    0    0  0.00000000000E+00  0.00000000000E+00  0.47410674132E+01  0.47410674132E+01  0.00000000000E+00 0.  1.
         22   -1    0    0    0    0 -0.00000000000E+00 -0.00000000000E+00 -0.12821684143E+01  0.12821684143E+01  0.00000000000E+00 0. -1.
          4    1    1    2  501    0 -0.13099462628E+01  0.18630694612E+01  0.57589643252E+00  0.23491793737E+01  0.00000000000E+00 0. -1.
         -4    1    1    2    0  501  0.13099462628E+01 -0.18630694612E+01  0.28830025664E+01  0.36740564539E+01  0.00000000000E+00 0.  1.
<mgrwt>
<rscale>  0 0.22774958E+01</rscale>
<asrwt>0</asrwt>
<pdfrwt beam="1">0</pdfrwt>
<pdfrwt beam="2">0</pdfrwt>
<totfact> 0.29145407E+12</totfact>
</mgrwt>
</event>
<event>
 4    2  0.2130683E+006  0.2412569E+01  0.7546771E-02  0.2748377E+00
         22   -1    0    0    0    0  0.00000000000E+00  0.00000000000E+00  0.52825127186E+01  0.52825127186E+01  0.00000000000E+00 0.  1.
         22   -1    0    0    0    0 -0.00000000000E+00 -0.00000000000E+00 -0.11052172535E+01  0.11052172535E+01  0.00000000000E+00 0. -1.
          4    1    1    2  501    0 -0.20557111887E+01  0.12627512796E+01  0.22651734338E+01  0.33093050586E+01  0.00000000000E+00 0.  1.
         -4    1    1    2    0  501  0.20557111887E+01 -0.12627512796E+01  0.19121220313E+01  0.30784249136E+01  0.00000000000E+00 0. -1.
<mgrwt>
<rscale>  0 0.24125690E+01</rscale>
<asrwt>0</asrwt>
<pdfrwt beam="1">0</pdfrwt>
<pdfrwt beam="2">0</pdfrwt>
<totfact> 0.30398763E+12</totfact>
</mgrwt>
</event>
<event>
 4    2  0.2130683E+006  0.2100637E+01  0.7546771E-02  0.2915957E+00
         22   -1    0    0    0    0  0.00000000000E+00  0.00000000000E+00  0.14481903861E+01  0.14481903861E+01  0.00000000000E+00 0. -1.
         22   -1    0    0    0    0 -0.00000000000E+00 -0.00000000000E+00 -0.59123798200E+01  0.59123798200E+01  0.00000000000E+00 0.  1.
          4    1    1    2  501    0 -0.58728885046E+00  0.20168705697E+01 -0.47941550925E+01  0.52341759753E+01  0.00000000000E+00 0.  1.
         -4    1    1    2    0  501  0.58728885046E+00 -0.20168705697E+01  0.32996565861E+00  0.21263942308E+01  0.00000000000E+00 0. -1.
<mgrwt>
<rscale>  0 0.21006368E+01</rscale>
<asrwt>0</asrwt>
<pdfrwt beam="1">0</pdfrwt>
<pdfrwt beam="2">0</pdfrwt>
<totfact> 0.19502976E+12</totfact>
</mgrwt>
</event>
<event>
 4    2  0.2130683E+006  0.2072297E+01  0.7546771E-02  0.2933577E+00
         22   -1    0    0    0    0  0.00000000000E+00  0.00000000000E+00  0.72852619178E+00  0.72852619178E+00  0.00000000000E+00 0. -1.
         22   -1    0    0    0    0 -0.00000000000E+00 -0.00000000000E+00 -0.92541917046E+01  0.92541917046E+01  0.00000000000E+00 0.  1.
          4    1    1    2  501    0  0.15811017891E+00 -0.20662562961E+01 -0.72702172406E+01  0.75597931608E+01  0.00000000000E+00 0.  1.
         -4    1    1    2    0  501 -0.15811017891E+00  0.20662562961E+01 -0.12554482723E+01  0.24229247355E+01  0.00000000000E+00 0. -1.
<mgrwt>
<rscale>  0 0.20722968E+01</rscale>
<asrwt>0</asrwt>
<pdfrwt beam="1">0</pdfrwt>
<pdfrwt beam="2">0</pdfrwt>
<totfact> 0.24994626E+12</totfact>
</mgrwt>
</event>
<event>
 4    2  0.2130683E+006  0.2231035E+01  0.7546771E-02  0.2840465E+00
         22   -1    0    0    0    0  0.00000000000E+00  0.00000000000E+00  0.36707231620E+00  0.36707231620E+00  0.00000000000E+00 0. -1.
         22   -1    0    0    0    0 -0.00000000000E+00 -0.00000000000E+00 -0.14631158412E+02  0.14631158412E+02  0.00000000000E+00 0.  1.
          4    1    1    2  501    0 -0.64240437127E+00 -0.21365473140E+01 -0.91610710206E+01  0.94288249557E+01  0.00000000000E+00 0.  1.
         -4    1    1    2    0  501  0.64240437127E+00  0.21365473140E+01 -0.51030150756E+01  0.55694057729E+01  0.00000000000E+00 0. -1.
<mgrwt>
<rscale>  0 0.22310351E+01</rscale>
<asrwt>0</asrwt>
<pdfrwt beam="1">0</pdfrwt>
<pdfrwt beam="2">0</pdfrwt>
<totfact> 0.31039004E+12</totfact>
</mgrwt>
</event>
<event>
 4    2  0.2130683E+006  0.2079925E+01  0.7546771E-02  0.2928788E+00
         22   -1    0    0    0    0  0.00000000000E+00  0.00000000000E+00  0.82901045759E+00  0.82901045759E+00  0.00000000000E+00 0. -1.
         22   -1    0    0    0    0 -0.00000000000E+00 -0.00000000000E+00 -0.13687490345E+02  0.13687490345E+02  0.00000000000E+00 0.  1.
          4    1    1    2  501    0  0.43540613572E-01 -0.20794695857E+01 -0.12138620517E+02  0.12315526688E+02  0.00000000000E+00 0.  1.
         -4    1    1    2    0  501 -0.43540613572E-01  0.20794695857E+01 -0.71985937117E+00  0.22009741155E+01  0.00000000000E+00 0. -1.
<mgrwt>
<rscale>  0 0.20799254E+01</rscale>
<asrwt>0</asrwt>
<pdfrwt beam="1">0</pdfrwt>
<pdfrwt beam="2">0</pdfrwt>
<totfact> 0.13405004E+12</totfact>
</mgrwt>
</event>
<event>
 4    2  0.2130683E+006  0.3787438E+01  0.7546771E-02  0.2319866E+00
         22   -1    0    0    0    0  0.00000000000E+00  0.00000000000E+00  0.19172736917E+01  0.19172736917E+01  0.00000000000E+00 0.  1.
         22   -1    0    0    0    0 -0.00000000000E+00 -0.00000000000E+00 -0.35526456618E+02  0.35526456618E+02  0.00000000000E+00 0. -1.
          4    1    1    2  501    0 -0.37662057349E+01  0.40047927903E+00 -0.33438645365E+02  0.33652454489E+02  0.00000000000E+00 0. -1.
         -4    1    1    2    0  501  0.37662057349E+01 -0.40047927903E+00 -0.17053756162E+00  0.37912758209E+01  0.00000000000E+00 0.  1.
<mgrwt>
<rscale>  0 0.37874384E+01</rscale>
<asrwt>0</asrwt>
<pdfrwt beam="1">0</pdfrwt>
<pdfrwt beam="2">0</pdfrwt>
<totfact> 0.15491975E+11</totfact>
</mgrwt>
</event>
<event>
 4    2  0.2130683E+006  0.2193044E+01  0.7546771E-02  0.2861568E+00
         22   -1    0    0    0    0  0.00000000000E+00  0.00000000000E+00  0.89649965582E+01  0.89649965582E+01  0.00000000000E+00 0.  1.
         22   -1    0    0    0    0 -0.00000000000E+00 -0.00000000000E+00 -0.13217058927E+01  0.13217058927E+01  0.00000000000E+00 0. -1.
          4    1    1    2  501    0  0.16652811832E+01  0.14269830126E+01 -0.14276994944E+00  0.21976863279E+01  0.00000000000E+00 0. -1.
         -4    1    1    2    0  501 -0.16652811832E+01 -0.14269830126E+01  0.77860606150E+01  0.80890161230E+01  0.00000000000E+00 0.  1.
<mgrwt>
<rscale>  0 0.21930440E+01</rscale>
<asrwt>0</asrwt>
<pdfrwt beam="1">0</pdfrwt>
<pdfrwt beam="2">0</pdfrwt>
<totfact> 0.13157207E+12</totfact>
</mgrwt>
</event>
<event>
 4    2  0.2130683E+006  0.3204270E+01  0.7546771E-02  0.2461321E+00
         22   -1    0    0    0    0  0.00000000000E+00  0.00000000000E+00  0.75977188415E+01  0.75977188415E+01  0.00000000000E+00 0.  1.
         22   -1    0    0    0    0 -0.00000000000E+00 -0.00000000000E+00 -0.17261364064E+01  0.17261364064E+01  0.00000000000E+00 0. -1.
          4    1    1    2  501    0 -0.21656053488E+01 -0.23616734683E+01  0.76355592674E+00  0.32939893367E+01  0.00000000000E+00 0. -1.
         -4    1    1    2    0  501  0.21656053488E+01  0.23616734683E+01  0.51080265083E+01  0.60298659112E+01  0.00000000000E+00 0.  1.
<mgrwt>
<rscale>  0 0.32042703E+01</rscale>
<asrwt>0</asrwt>
<pdfrwt beam="1">0</pdfrwt>
<pdfrwt beam="2">0</pdfrwt>
<totfact> 0.11808733E+12</totfact>
</mgrwt>
</event>
<event>
 4    2  0.2130683E+006  0.5336801E+01  0.7546771E-02  0.2084825E+00
         22   -1    0    0    0    0  0.00000000000E+00  0.00000000000E+00  0.82448761958E+01  0.82448761958E+01  0.00000000000E+00 0.  1.
         22   -1    0    0    0    0 -0.00000000000E+00 -0.00000000000E+00 -0.48013505262E+01  0.48013505262E+01  0.00000000000E+00 0. -1.
          4    1    1    2  501    0  0.51623509151E+01  0.13533570996E+01 -0.17331918270E+01  0.56111849300E+01  0.00000000000E+00 0. -1.
         -4    1    1    2    0  501 -0.51623509151E+01 -0.13533570996E+01  0.51767174965E+01  0.74350417920E+01  0.00000000000E+00 0.  1.
<mgrwt>
<rscale>  0 0.53368008E+01</rscale>
<asrwt>0</asrwt>
<pdfrwt beam="1">0</pdfrwt>
<pdfrwt beam="2">0</pdfrwt>
<totfact> 0.32425733E+11</totfact>
</mgrwt>
</event>
<event>
 4    2  0.2130683E+006  0.2784307E+01  0.7546771E-02  0.2595074E+00
         22   -1    0    0    0    0  0.00000000000E+00  0.00000000000E+00  0.27513428856E+00  0.27513428856E+00  0.00000000000E+00 0.  1.
         22   -1    0    0    0    0 -0.00000000000E+00 -0.00000000000E+00 -0.28396635561E+02  0.28396635561E+02  0.00000000000E+00 0. -1.
          4    1    1    2  501    0  0.27804086780E+01  0.14728372447E+00 -0.12798982133E+02  0.13098332281E+02  0.00000000000E+00 0. -1.
         -4    1    1    2    0  501 -0.27804086780E+01 -0.14728372447E+00 -0.15322519140E+02  0.15573437569E+02  0.00000000000E+00 0.  1.
<mgrwt>
<rscale>  0 0.27843069E+01</rscale>
<asrwt>0</asrwt>
<pdfrwt beam="1">0</pdfrwt>
<pdfrwt beam="2">0</pdfrwt>
<totfact> 0.18741936E+12</totfact>
</mgrwt>
</event>
<event>
 4    2  0.2130683E+006  0.2224185E+01  0.7546771E-02  0.2844220E+00
         22   -1    0    0    0    0  0.00000000000E+00  0.00000000000E+00  0.55897546003E+01  0.55897546003E+01  0.00000000000E+00 0.  1.
         22   -1    0    0    0    0 -0.00000000000E+00 -0.00000000000E+00 -0.90642404830E+00  0.90642404830E+00  0.00000000000E+00 0. -1.
          4    1    1    2  501    0  0.96186420731E+00 -0.20054462194E+01  0.18424405475E+01  0.28881801300E+01  0.00000000000E+00 0. -1.
         -4    1    1    2    0  501 -0.96186420731E+00  0.20054462194E+01  0.28408900045E+01  0.36079985186E+01  0.00000000000E+00 0.  1.
<mgrwt>
<rscale>  0 0.22241846E+01</rscale>
<asrwt>0</asrwt>
<pdfrwt beam="1">0</pdfrwt>
<pdfrwt beam="2">0</pdfrwt>
<totfact> 0.35649061E+12</totfact>
</mgrwt>
</event>
<event>
 4    2  0.2130683E+006  0.2572017E+01  0.7546771E-02  0.2677607E+00
         22   -1    0    0    0    0  0.00000000000E+00  0.00000000000E+00  0.29535587365E+00  0.29535587365E+00  0.00000000000E+00 0. -1.
         22   -1    0    0    0    0 -0.00000000000E+00 -0.00000000000E+00 -0.22443205138E+02  0.22443205138E+02  0.00000000000E+00 0.  1.
          4    1    1    2  501    0 -0.25668672971E+01  0.16268435957E+00 -0.11586215608E+02  0.11868262975E+02  0.00000000000E+00 0. -1.
         -4    1    1    2    0  501  0.25668672971E+01 -0.16268435957E+00 -0.10561633657E+02  0.10870298037E+02  0.00000000000E+00 0.  1.
<mgrwt>
<rscale>  0 0.25720175E+01</rscale>
<asrwt>0</asrwt>
<pdfrwt beam="1">0</pdfrwt>
<pdfrwt beam="2">0</pdfrwt>
<totfact> 0.23294979E+12</totfact>
</mgrwt>
</event>
<event>
 4    2  0.2130683E+006  0.2315918E+01  0.7546771E-02  0.2795704E+00
         22   -1    0    0    0    0  0.00000000000E+00  0.00000000000E+00  0.27544076735E+02  0.27544076735E+02  0.00000000000E+00 0. -1.
         22   -1    0    0    0    0 -0.00000000000E+00 -0.00000000000E+00 -0.24228592654E+00  0.24228592654E+00  0.00000000000E+00 0.  1.
          4    1    1    2  501    0 -0.22756674934E+01 -0.42989756757E+00  0.74952957224E+01  0.78449303647E+01  0.00000000000E+00 0.  1.
         -4    1    1    2    0  501  0.22756674934E+01  0.42989756757E+00  0.19806495086E+02  0.19941432297E+02  0.00000000000E+00 0. -1.
<mgrwt>
<rscale>  0 0.23159176E+01</rscale>
<asrwt>0</asrwt>
<pdfrwt beam="1">0</pdfrwt>
<pdfrwt beam="2">0</pdfrwt>
<totfact> 0.22459064E+12</totfact>
</mgrwt>
</event>
<event>
 4    2  0.2130683E+006  0.4378338E+01  0.7546771E-02  0.2210325E+00
         22   -1    0    0    0    0  0.00000000000E+00  0.00000000000E+00  0.39248312875E+01  0.39248312875E+01  0.00000000000E+00 0.  1.
         22   -1    0    0    0    0 -0.00000000000E+00 -0.00000000000E+00 -0.50263723321E+01  0.50263723321E+01  0.00000000000E+00 0. -1.
          4    1    1    2  501    0  0.39393967294E+01 -0.19107572901E+01 -0.13033666370E+01  0.45682167860E+01  0.00000000000E+00 0. -1.
         -4    1    1    2    0  501 -0.39393967294E+01  0.19107572901E+01  0.20182559247E+00  0.43829868336E+01  0.00000000000E+00 0.  1.
<mgrwt>
<rscale>  0 0.43783376E+01</rscale>
<asrwt>0</asrwt>
<pdfrwt beam="1">0</pdfrwt>
<pdfrwt beam="2">0</pdfrwt>
<totfact> 0.74228289E+11</totfact>
</mgrwt>
</event>
<event>
 4    2  0.2130683E+006  0.3384819E+01  0.7546771E-02  0.2412984E+00
         22   -1    0    0    0    0  0.00000000000E+00  0.00000000000E+00  0.89684131972E+00  0.89684131972E+00  0.00000000000E+00 0.  1.
         22   -1    0    0    0    0 -0.00000000000E+00 -0.00000000000E+00 -0.30662022118E+02  0.30662022118E+02  0.00000000000E+00 0. -1.
          4    1    1    2  501    0 -0.27377413341E+01 -0.19904204689E+01 -0.26934669367E+02  0.27146517552E+02  0.00000000000E+00 0. -1.
         -4    1    1    2    0  501  0.27377413341E+01  0.19904204689E+01 -0.28305114304E+01  0.44123458855E+01  0.00000000000E+00 0.  1.
<mgrwt>
<rscale>  0 0.33848192E+01</rscale>
<asrwt>0</asrwt>
<pdfrwt beam="1">0</pdfrwt>
<pdfrwt beam="2">0</pdfrwt>
<totfact> 0.44752129E+11</totfact>
</mgrwt>
</event>
<event>
 4    2  0.2130683E+006  0.5676796E+01  0.7546771E-02  0.2049946E+00
         22   -1    0    0    0    0  0.00000000000E+00  0.00000000000E+00  0.38284275517E+02  0.38284275517E+02  0.00000000000E+00 0.  1.
         22   -1    0    0    0    0 -0.00000000000E+00 -0.00000000000E+00 -0.85538615249E+00  0.85538615249E+00  0.00000000000E+00 0. -1.
          4    1    1    2  501    0 -0.32501991750E+01  0.46542683299E+01  0.16244082729E+02  0.17207446994E+02  0.00000000000E+00 0.  1.
         -4    1    1    2    0  501  0.32501991750E+01 -0.46542683299E+01  0.21184806635E+02  0.21932214675E+02  0.00000000000E+00 0. -1.
<mgrwt>
<rscale>  0 0.56767956E+01</rscale>
<asrwt>0</asrwt>
<pdfrwt beam="1">0</pdfrwt>
<pdfrwt beam="2">0</pdfrwt>
<totfact> 0.35509844E+11</totfact>
</mgrwt>
</event>
<event>
 4    2  0.2130683E+006  0.2078093E+01  0.7546771E-02  0.2929935E+00
         22   -1    0    0    0    0  0.00000000000E+00  0.00000000000E+00  0.28837166671E+01  0.28837166671E+01  0.00000000000E+00 0. -1.
         22   -1    0    0    0    0 -0.00000000000E+00 -0.00000000000E+00 -0.15593622425E+01  0.15593622425E+01  0.00000000000E+00 0.  1.
          4    1    1    2  501    0 -0.14184451669E+01  0.15187115375E+01  0.21982863753E+00  0.20896880283E+01  0.00000000000E+00 0.  1.
         -4    1    1    2    0  501  0.14184451669E+01 -0.15187115375E+01  0.11045257871E+01  0.23533908813E+01  0.00000000000E+00 0. -1.
<mgrwt>
<rscale>  0 0.20780932E+01</rscale>
<asrwt>0</asrwt>
<pdfrwt beam="1">0</pdfrwt>
<pdfrwt beam="2">0</pdfrwt>
<totfact> 0.41729729E+12</totfact>
</mgrwt>
</event>
<event>
 4    2  0.2130683E+006  0.2529396E+01  0.7546771E-02  0.2695711E+00
         22   -1    0    0    0    0  0.00000000000E+00  0.00000000000E+00  0.24540887463E+01  0.24540887463E+01  0.00000000000E+00 0. -1.
         22   -1    0    0    0    0 -0.00000000000E+00 -0.00000000000E+00 -0.15696843416E+02  0.15696843416E+02  0.00000000000E+00 0.  1.
          4    1    1    2  501    0  0.25003053360E+01 -0.38251311094E+00 -0.14908996251E+02  0.15122037305E+02  0.00000000000E+00 0.  1.
         -4    1    1    2    0  501 -0.25003053360E+01  0.38251311094E+00  0.16662415807E+01  0.30288948576E+01  0.00000000000E+00 0. -1.
<mgrwt>
<rscale>  0 0.25293958E+01</rscale>
<asrwt>0</asrwt>
<pdfrwt beam="1">0</pdfrwt>
<pdfrwt beam="2">0</pdfrwt>
<totfact> 0.32525034E+11</totfact>
</mgrwt>
</event>
<event>
 4    2  0.2130683E+006  0.4359979E+01  0.7546771E-02  0.2213347E+00
         22   -1    0    0    0    0  0.00000000000E+00  0.00000000000E+00  0.14544832681E+02  0.14544832681E+02  0.00000000000E+00 0.  1.
         22   -1    0    0    0    0 -0.00000000000E+00 -0.00000000000E+00 -0.45603248693E+01  0.45603248693E+01  0.00000000000E+00 0. -1.
          4    1    1    2  501    0 -0.39496994547E+01  0.18464258055E+01 -0.30761862878E+01  0.53359475368E+01  0.00000000000E+00 0. -1.
         -4    1    1    2    0  501  0.39496994547E+01 -0.18464258055E+01  0.13060694099E+02  0.13769210013E+02  0.00000000000E+00 0.  1.
<mgrwt>
<rscale>  0 0.43599787E+01</rscale>
<asrwt>0</asrwt>
<pdfrwt beam="1">0</pdfrwt>
<pdfrwt beam="2">0</pdfrwt>
<totfact> 0.17287296E+11</totfact>
</mgrwt>
</event>
<event>
 4    2  0.2130683E+006  0.2291582E+01  0.7546771E-02  0.2808215E+00
         22   -1    0    0    0    0  0.00000000000E+00  0.00000000000E+00  0.11211527234E+01  0.11211527234E+01  0.00000000000E+00 0. -1.
         22   -1    0    0    0    0 -0.00000000000E+00 -0.00000000000E+00 -0.60360048841E+01  0.60360048841E+01  0.00000000000E+00 0.  1.
          4    1    1    2  501    0  0.21292600597E+01  0.84711195231E+00 -0.41511548924E+01  0.47416699592E+01  0.00000000000E+00 0.  1.
         -4    1    1    2    0  501 -0.21292600597E+01 -0.84711195231E+00 -0.76369726837E+00  0.24154876483E+01  0.00000000000E+00 0. -1.
<mgrwt>
<rscale>  0 0.22915818E+01</rscale>
<asrwt>0</asrwt>
<pdfrwt beam="1">0</pdfrwt>
<pdfrwt beam="2">0</pdfrwt>
<totfact> 0.25522727E+12</totfact>
</mgrwt>
</event>
<event>
 4    2  0.2130683E+006  0.2815994E+01  0.7546771E-02  0.2583733E+00
         22   -1    0    0    0    0  0.00000000000E+00  0.00000000000E+00  0.10652843557E+01  0.10652843557E+01  0.00000000000E+00 0.  1.
         22   -1    0    0    0    0 -0.00000000000E+00 -0.00000000000E+00 -0.10184230862E+02  0.10184230862E+02  0.00000000000E+00 0. -1.
          4    1    1    2  501    0 -0.28146407638E+01  0.87274988002E-01 -0.74772023304E+01  0.79898920045E+01  0.00000000000E+00 0. -1.
         -4    1    1    2    0  501  0.28146407638E+01 -0.87274988002E-01 -0.16417441757E+01  0.32596232131E+01  0.00000000000E+00 0.  1.
<mgrwt>
<rscale>  0 0.28159935E+01</rscale>
<asrwt>0</asrwt>
<pdfrwt beam="1">0</pdfrwt>
<pdfrwt beam="2">0</pdfrwt>
<totfact> 0.14439140E+12</totfact>
</mgrwt>
</event>
<event>
 4    2  0.2130683E+006  0.2354105E+01  0.7546771E-02  0.2776567E+00
         22   -1    0    0    0    0  0.00000000000E+00  0.00000000000E+00  0.30225968847E+01  0.30225968847E+01  0.00000000000E+00 0. -1.
         22   -1    0    0    0    0 -0.00000000000E+00 -0.00000000000E+00 -0.18854861351E+02  0.18854861351E+02  0.00000000000E+00 0.  1.
          4    1    1    2  501    0  0.17958021900E+01  0.15221383732E+01 -0.18309417586E+02  0.18460134969E+02  0.00000000000E+00 0.  1.
         -4    1    1    2    0  501 -0.17958021900E+01 -0.15221383732E+01  0.24771531196E+01  0.34173232669E+01  0.00000000000E+00 0. -1.
<mgrwt>
<rscale>  0 0.23541051E+01</rscale>
<asrwt>0</asrwt>
<pdfrwt beam="1">0</pdfrwt>
<pdfrwt beam="2">0</pdfrwt>
<totfact> 0.20331499E+11</totfact>
</mgrwt>
</event>
<event>
 4    2  0.2130683E+006  0.2716446E+01  0.7546771E-02  0.2620170E+00
         22   -1    0    0    0    0  0.00000000000E+00  0.00000000000E+00  0.20701911201E+01  0.20701911201E+01  0.00000000000E+00 0.  1.
         22   -1    0    0    0    0 -0.00000000000E+00 -0.00000000000E+00 -0.35793509924E+01  0.35793509924E+01  0.00000000000E+00 0. -1.
          4    1    1    2  501    0 -0.41318946407E+00  0.26848375569E+01 -0.93688164482E+00  0.28734692371E+01  0.00000000000E+00 0. -1.
         -4    1    1    2    0  501  0.41318946407E+00 -0.26848375569E+01 -0.57227822747E+00  0.27760728754E+01  0.00000000000E+00 0.  1.
<mgrwt>
<rscale>  0 0.27164459E+01</rscale>
<asrwt>0</asrwt>
<pdfrwt beam="1">0</pdfrwt>
<pdfrwt beam="2">0</pdfrwt>
<totfact> 0.23363375E+12</totfact>
</mgrwt>
</event>
<event>
 4    2  0.2130683E+006  0.2860897E+01  0.7546771E-02  0.2568053E+00
         22   -1    0    0    0    0  0.00000000000E+00  0.00000000000E+00  0.72036710390E+01  0.72036710390E+01  0.00000000000E+00 0. -1.
         22   -1    0    0    0    0 -0.00000000000E+00 -0.00000000000E+00 -0.14124344171E+01  0.14124344171E+01  0.00000000000E+00 0.  1.
          4    1    1    2  501    0 -0.28579907614E+01 -0.12892261066E+00  0.99040170770E+00  0.30274787818E+01  0.00000000000E+00 0.  1.
         -4    1    1    2    0  501  0.28579907614E+01  0.12892261066E+00  0.48008349142E+01  0.55886266743E+01  0.00000000000E+00 0. -1.
<mgrwt>
<rscale>  0 0.28608971E+01</rscale>
<asrwt>0</asrwt>
<pdfrwt beam="1">0</pdfrwt>
<pdfrwt beam="2">0</pdfrwt>
<totfact> 0.15857133E+12</totfact>
</mgrwt>
</event>
<event>
 4    2  0.2130683E+006  0.2043675E+01  0.7546771E-02  0.2951854E+00
         22   -1    0    0    0    0  0.00000000000E+00  0.00000000000E+00  0.40915705415E+01  0.40915705415E+01  0.00000000000E+00 0.  1.
         22   -1    0    0    0    0 -0.00000000000E+00 -0.00000000000E+00 -0.11715092646E+01  0.11715092646E+01  0.00000000000E+00 0. -1.
          4    1    1    2  501    0 -0.15427860906E+01 -0.13403056111E+01  0.51612035180E+00  0.21078397164E+01  0.00000000000E+00 0. -1.
         -4    1    1    2    0  501  0.15427860906E+01  0.13403056111E+01  0.24039409250E+01  0.31552400897E+01  0.00000000000E+00 0.  1.
<mgrwt>
<rscale>  0 0.20436751E+01</rscale>
<asrwt>0</asrwt>
<pdfrwt beam="1">0</pdfrwt>
<pdfrwt beam="2">0</pdfrwt>
<totfact> 0.38456377E+12</totfact>
</mgrwt>
</event>
<event>
 4    2  0.2130683E+006  0.2122181E+01  0.7546771E-02  0.2902868E+00
         22   -1    0    0    0    0  0.00000000000E+00  0.00000000000E+00  0.49683692283E+01  0.49683692283E+01  0.00000000000E+00 0. -1.
         22   -1    0    0    0    0 -0.00000000000E+00 -0.00000000000E+00 -0.91272835826E+00  0.91272835826E+00  0.00000000000E+00 0.  1.
          4    1    1    2  501    0 -0.21221077516E+01  0.17683977481E-01  0.22714066647E+01  0.31085273473E+01  0.00000000000E+00 0. -1.
         -4    1    1    2    0  501  0.21221077516E+01 -0.17683977481E-01  0.17842342054E+01  0.27725702393E+01  0.00000000000E+00 0.  1.
<mgrwt>
<rscale>  0 0.21221814E+01</rscale>
<asrwt>0</asrwt>
<pdfrwt beam="1">0</pdfrwt>
<pdfrwt beam="2">0</pdfrwt>
<totfact> 0.40671967E+12</totfact>
</mgrwt>
</event>
<event>
 4    2  0.2130683E+006  0.2059315E+01  0.7546771E-02  0.2941805E+00
         22   -1    0    0    0    0  0.00000000000E+00  0.00000000000E+00  0.45534438288E+02  0.45534438288E+02  0.00000000000E+00 0. -1.
         22   -1    0    0    0    0 -0.00000000000E+00 -0.00000000000E+00 -0.42268543712E+00  0.42268543712E+00  0.00000000000E+00 0.  1.
          4    1    1    2  501    0  0.10047519163E+01 -0.17975685751E+01  0.22661509434E+01  0.30620612818E+01  0.00000000000E+00 0.  1.
         -4    1    1    2    0  501 -0.10047519163E+01  0.17975685751E+01  0.42845601907E+02  0.42895062443E+02  0.00000000000E+00 0. -1.
<mgrwt>
<rscale>  0 0.20593152E+01</rscale>
<asrwt>0</asrwt>
<pdfrwt beam="1">0</pdfrwt>
<pdfrwt beam="2">0</pdfrwt>
<totfact> 0.62943577E+11</totfact>
</mgrwt>
</event>
<event>
 4    2  0.2130683E+006  0.2847721E+01  0.7546771E-02  0.2572608E+00
         22   -1    0    0    0    0  0.00000000000E+00  0.00000000000E+00  0.43318074647E+01  0.43318074647E+01  0.00000000000E+00 0. -1.
         22   -1    0    0    0    0 -0.00000000000E+00 -0.00000000000E+00 -0.24633343734E+01  0.24633343734E+01  0.00000000000E+00 0.  1.
          4    1    1    2  501    0  0.26563813527E+01 -0.10262321033E+01 -0.73029483377E+00  0.29398715559E+01  0.00000000000E+00 0.  1.
         -4    1    1    2    0  501 -0.26563813527E+01  0.10262321033E+01  0.25987679251E+01  0.38552702823E+01  0.00000000000E+00 0. -1.
<mgrwt>
<rscale>  0 0.28477209E+01</rscale>
<asrwt>0</asrwt>
<pdfrwt beam="1">0</pdfrwt>
<pdfrwt beam="2">0</pdfrwt>
<totfact> 0.15255660E+12</totfact>
</mgrwt>
</event>
<event>
 4    2  0.2130683E+006  0.3237090E+01  0.7546771E-02  0.2452181E+00
         22   -1    0    0    0    0  0.00000000000E+00  0.00000000000E+00  0.10556564077E+02  0.10556564077E+02  0.00000000000E+00 0. -1.
         22   -1    0    0    0    0 -0.00000000000E+00 -0.00000000000E+00 -0.14064397361E+01  0.14064397361E+01  0.00000000000E+00 0.  1.
          4    1    1    2  501    0 -0.26794815746E+01 -0.18163500406E+01  0.13305404123E+01  0.34998695358E+01  0.00000000000E+00 0.  1.
         -4    1    1    2    0  501  0.26794815746E+01  0.18163500406E+01  0.78195839283E+01  0.84631342770E+01  0.00000000000E+00 0. -1.
<mgrwt>
<rscale>  0 0.32370896E+01</rscale>
<asrwt>0</asrwt>
<pdfrwt beam="1">0</pdfrwt>
<pdfrwt beam="2">0</pdfrwt>
<totfact> 0.10054130E+12</totfact>
</mgrwt>
</event>
<event>
 4    2  0.2130683E+006  0.5182042E+01  0.7546771E-02  0.2101881E+00
         22   -1    0    0    0    0  0.00000000000E+00  0.00000000000E+00  0.38764364657E+01  0.38764364657E+01  0.00000000000E+00 0.  1.
         22   -1    0    0    0    0 -0.00000000000E+00 -0.00000000000E+00 -0.69747534167E+01  0.69747534167E+01  0.00000000000E+00 0. -1.
          4    1    1    2  501    0 -0.12180647476E+01  0.50368523027E+01 -0.11020290433E+01  0.52979270343E+01  0.00000000000E+00 0. -1.
         -4    1    1    2    0  501  0.12180647476E+01 -0.50368523027E+01 -0.19962879078E+01  0.55532628481E+01  0.00000000000E+00 0.  1.
<mgrwt>
<rscale>  0 0.51820423E+01</rscale>
<asrwt>0</asrwt>
<pdfrwt beam="1">0</pdfrwt>
<pdfrwt beam="2">0</pdfrwt>
<totfact> 0.51004019E+11</totfact>
</mgrwt>
</event>
<event>
 4    2  0.2130683E+006  0.2753680E+01  0.7546771E-02  0.2606260E+00
         22   -1    0    0    0    0  0.00000000000E+00  0.00000000000E+00  0.30608245929E+00  0.30608245929E+00  0.00000000000E+00 0. -1.
         22   -1    0    0    0    0 -0.00000000000E+00 -0.00000000000E+00 -0.25314702828E+02  0.25314702828E+02  0.00000000000E+00 0.  1.
          4    1    1    2  501    0  0.57814728765E+00 -0.26923038671E+01 -0.14377272570E+02  0.14638603791E+02  0.00000000000E+00 0. -1.
         -4    1    1    2    0  501 -0.57814728765E+00  0.26923038671E+01 -0.10631347798E+02  0.10982181496E+02  0.00000000000E+00 0.  1.
<mgrwt>
<rscale>  0 0.27536802E+01</rscale>
<asrwt>0</asrwt>
<pdfrwt beam="1">0</pdfrwt>
<pdfrwt beam="2">0</pdfrwt>
<totfact> 0.19235696E+12</totfact>
</mgrwt>
</event>
<event>
 4    2  0.2130683E+006  0.2700131E+01  0.7546771E-02  0.2626375E+00
         22   -1    0    0    0    0  0.00000000000E+00  0.00000000000E+00  0.53217246675E+00  0.53217246675E+00  0.00000000000E+00 0.  1.
         22   -1    0    0    0    0 -0.00000000000E+00 -0.00000000000E+00 -0.13876912586E+02  0.13876912586E+02  0.00000000000E+00 0. -1.
          4    1    1    2  501    0  0.25515502061E+01 -0.88334424391E+00 -0.74860834041E+01  0.79581499257E+01  0.00000000000E+00 0.  1.
         -4    1    1    2    0  501 -0.25515502061E+01  0.88334424391E+00 -0.58586567153E+01  0.64509351271E+01  0.00000000000E+00 0. -1.
<mgrwt>
<rscale>  0 0.27001306E+01</rscale>
<asrwt>0</asrwt>
<pdfrwt beam="1">0</pdfrwt>
<pdfrwt beam="2">0</pdfrwt>
<totfact> 0.21793600E+12</totfact>
</mgrwt>
</event>
<event>
 4    2  0.2130683E+006  0.9040387E+01  0.7546771E-02  0.1821509E+00
         22   -1    0    0    0    0  0.00000000000E+00  0.00000000000E+00  0.14894809730E+02  0.14894809730E+02  0.00000000000E+00 0. -1.
         22   -1    0    0    0    0 -0.00000000000E+00 -0.00000000000E+00 -0.10367354448E+02  0.10367354448E+02  0.00000000000E+00 0.  1.
          4    1    1    2  501    0  0.90403871300E+01  0.33748304241E-03 -0.64024969691E+01  0.11077931531E+02  0.00000000000E+00 0.  1.
         -4    1    1    2    0  501 -0.90403871300E+01 -0.33748304241E-03  0.10929952251E+02  0.14184232647E+02  0.00000000000E+00 0. -1.
<mgrwt>
<rscale>  0 0.90403871E+01</rscale>
<asrwt>0</asrwt>
<pdfrwt beam="1">0</pdfrwt>
<pdfrwt beam="2">0</pdfrwt>
<totfact> 0.62877313E+10</totfact>
</mgrwt>
</event>
<event>
 4    2  0.2130683E+006  0.2053828E+01  0.7546771E-02  0.2945314E+00
         22   -1    0    0    0    0  0.00000000000E+00  0.00000000000E+00  0.29909218342E+02  0.29909218342E+02  0.00000000000E+00 0. -1.
         22   -1    0    0    0    0 -0.00000000000E+00 -0.00000000000E+00 -0.14637582551E+00  0.14637582551E+00  0.00000000000E+00 0.  1.
          4    1    1    2  501    0 -0.18097412330E+01 -0.97110652116E+00  0.12010555014E+02  0.12184894048E+02  0.00000000000E+00 0.  1.
         -4    1    1    2    0  501  0.18097412330E+01  0.97110652116E+00  0.17752287502E+02  0.17870700119E+02  0.00000000000E+00 0. -1.
<mgrwt>
<rscale>  0 0.20538284E+01</rscale>
<asrwt>0</asrwt>
<pdfrwt beam="1">0</pdfrwt>
<pdfrwt beam="2">0</pdfrwt>
<totfact> 0.35470493E+12</totfact>
</mgrwt>
</event>
<event>
 4    2  0.2130683E+006  0.4998641E+01  0.7546771E-02  0.2123166E+00
         22   -1    0    0    0    0  0.00000000000E+00  0.00000000000E+00  0.41341553761E+01  0.41341553761E+01  0.00000000000E+00 0.  1.
         22   -1    0    0    0    0 -0.00000000000E+00 -0.00000000000E+00 -0.78547102852E+01  0.78547102852E+01  0.00000000000E+00 0. -1.
          4    1    1    2  501    0 -0.49013750956E+01  0.98129434315E+00 -0.47384686581E+01  0.68876339653E+01  0.00000000000E+00 0. -1.
         -4    1    1    2    0  501  0.49013750956E+01 -0.98129434315E+00  0.10179137490E+01  0.51012316960E+01  0.00000000000E+00 0.  1.
<mgrwt>
<rscale>  0 0.49986415E+01</rscale>
<asrwt>0</asrwt>
<pdfrwt beam="1">0</pdfrwt>
<pdfrwt beam="2">0</pdfrwt>
<totfact> 0.41008501E+11</totfact>
</mgrwt>
</event>
<event>
 4    2  0.2130683E+006  0.2078457E+01  0.7546771E-02  0.2929707E+00
         22   -1    0    0    0    0  0.00000000000E+00  0.00000000000E+00  0.51719914357E+01  0.51719914357E+01  0.00000000000E+00 0.  1.
         22   -1    0    0    0    0 -0.00000000000E+00 -0.00000000000E+00 -0.85322736965E+00  0.85322736965E+00  0.00000000000E+00 0. -1.
          4    1    1    2  501    0 -0.94095595687E+00  0.18532632879E+01  0.17222693373E+01  0.26992952038E+01  0.00000000000E+00 0. -1.
         -4    1    1    2    0  501  0.94095595687E+00 -0.18532632879E+01  0.25964947288E+01  0.33259236016E+01  0.00000000000E+00 0.  1.
<mgrwt>
<rscale>  0 0.20784569E+01</rscale>
<asrwt>0</asrwt>
<pdfrwt beam="1">0</pdfrwt>
<pdfrwt beam="2">0</pdfrwt>
<totfact> 0.41878253E+12</totfact>
</mgrwt>
</event>
<event>
 4    2  0.2130683E+006  0.4290568E+01  0.7546771E-02  0.2224970E+00
         22   -1    0    0    0    0  0.00000000000E+00  0.00000000000E+00  0.16072226656E+02  0.16072226656E+02  0.00000000000E+00 0. -1.
         22   -1    0    0    0    0 -0.00000000000E+00 -0.00000000000E+00 -0.22961755805E+01  0.22961755805E+01  0.00000000000E+00 0.  1.
          4    1    1    2  501    0 -0.42847047111E+01  0.22422370192E+00  0.38618957191E+00  0.43079128491E+01  0.00000000000E+00 0.  1.
         -4    1    1    2    0  501  0.42847047111E+01 -0.22422370192E+00  0.13389861504E+02  0.14060489388E+02  0.00000000000E+00 0. -1.
<mgrwt>
<rscale>  0 0.42905676E+01</rscale>
<asrwt>0</asrwt>
<pdfrwt beam="1">0</pdfrwt>
<pdfrwt beam="2">0</pdfrwt>
<totfact> 0.34129357E+11</totfact>
</mgrwt>
</event>
<event>
 4    2  0.2130683E+006  0.4113092E+01  0.7546771E-02  0.2256184E+00
         22   -1    0    0    0    0  0.00000000000E+00  0.00000000000E+00  0.40759568940E+02  0.40759568940E+02  0.00000000000E+00 0. -1.
         22   -1    0    0    0    0 -0.00000000000E+00 -0.00000000000E+00 -0.23462831957E+01  0.23462831957E+01  0.00000000000E+00 0.  1.
          4    1    1    2  501    0 -0.41077561538E+01 -0.20944970770E+00 -0.34722319699E+00  0.41277225860E+01  0.00000000000E+00 0.  1.
         -4    1    1    2    0  501  0.41077561538E+01  0.20944970770E+00  0.38760508942E+02  0.38978129550E+02  0.00000000000E+00 0. -1.
<mgrwt>
<rscale>  0 0.41130925E+01</rscale>
<asrwt>0</asrwt>
<pdfrwt beam="1">0</pdfrwt>
<pdfrwt beam="2">0</pdfrwt>
<totfact> 0.10263097E+11</totfact>
</mgrwt>
</event>
<event>
 4    2  0.2130683E+006  0.2640640E+01  0.7546771E-02  0.2649596E+00
         22   -1    0    0    0    0  0.00000000000E+00  0.00000000000E+00  0.14364174569E+01  0.14364174569E+01  0.00000000000E+00 0. -1.
         22   -1    0    0    0    0 -0.00000000000E+00 -0.00000000000E+00 -0.60680343456E+01  0.60680343456E+01  0.00000000000E+00 0.  1.
          4    1    1    2  501    0 -0.25007685077E+01  0.84801944912E+00 -0.39938569290E+01  0.47878881863E+01  0.00000000000E+00 0.  1.
         -4    1    1    2    0  501  0.25007685077E+01 -0.84801944912E+00 -0.63775995963E+00  0.27165636162E+01  0.00000000000E+00 0. -1.
<mgrwt>
<rscale>  0 0.26406401E+01</rscale>
<asrwt>0</asrwt>
<pdfrwt beam="1">0</pdfrwt>
<pdfrwt beam="2">0</pdfrwt>
<totfact> 0.19088631E+12</totfact>
</mgrwt>
</event>
<event>
 4    2  0.2130683E+006  0.3106448E+01  0.7546771E-02  0.2489576E+00
         22   -1    0    0    0    0  0.00000000000E+00  0.00000000000E+00  0.21458520781E+01  0.21458520781E+01  0.00000000000E+00 0. -1.
         22   -1    0    0    0    0 -0.00000000000E+00 -0.00000000000E+00 -0.46318903585E+01  0.46318903585E+01  0.00000000000E+00 0.  1.
          4    1    1    2  501    0 -0.30892457319E+01 -0.32646344301E+00 -0.66482223870E+00  0.31767918063E+01  0.00000000000E+00 0.  1.
         -4    1    1    2    0  501  0.30892457319E+01  0.32646344301E+00 -0.18212160416E+01  0.36009506303E+01  0.00000000000E+00 0. -1.
<mgrwt>
<rscale>  0 0.31064477E+01</rscale>
<asrwt>0</asrwt>
<pdfrwt beam="1">0</pdfrwt>
<pdfrwt beam="2">0</pdfrwt>
<totfact> 0.16545073E+12</totfact>
</mgrwt>
</event>
<event>
 4    2  0.2130683E+006  0.2837996E+01  0.7546771E-02  0.2575994E+00
         22   -1    0    0    0    0  0.00000000000E+00  0.00000000000E+00  0.27062184391E+01  0.27062184391E+01  0.00000000000E+00 0.  1.
         22   -1    0    0    0    0 -0.00000000000E+00 -0.00000000000E+00 -0.32384481770E+01  0.32384481770E+01  0.00000000000E+00 0. -1.
          4    1    1    2  501    0 -0.23299764516E+01  0.16203187120E+01 -0.11119636232E+01  0.30480626786E+01  0.00000000000E+00 0. -1.
         -4    1    1    2    0  501  0.23299764516E+01 -0.16203187120E+01  0.57973388533E+00  0.28966039376E+01  0.00000000000E+00 0.  1.
<mgrwt>
<rscale>  0 0.28379963E+01</rscale>
<asrwt>0</asrwt>
<pdfrwt beam="1">0</pdfrwt>
<pdfrwt beam="2">0</pdfrwt>
<totfact> 0.19244218E+12</totfact>
</mgrwt>
</event>
<event>
 4    2  0.2130683E+006  0.2562433E+01  0.7546771E-02  0.2681629E+00
         22   -1    0    0    0    0  0.00000000000E+00  0.00000000000E+00  0.18429263988E+01  0.18429263988E+01  0.00000000000E+00 0.  1.
         22   -1    0    0    0    0 -0.00000000000E+00 -0.00000000000E+00 -0.16888740258E+02  0.16888740258E+02  0.00000000000E+00 0. -1.
          4    1    1    2  501    0  0.11424967762E+01  0.22936354959E+01 -0.15842383069E+02  0.16048276044E+02  0.00000000000E+00 0. -1.
         -4    1    1    2    0  501 -0.11424967762E+01 -0.22936354959E+01  0.79656921050E+00  0.26833906124E+01  0.00000000000E+00 0.  1.
<mgrwt>
<rscale>  0 0.25624330E+01</rscale>
<asrwt>0</asrwt>
<pdfrwt beam="1">0</pdfrwt>
<pdfrwt beam="2">0</pdfrwt>
<totfact> 0.41411781E+11</totfact>
</mgrwt>
</event>
<event>
 4    2  0.2130683E+006  0.2780274E+01  0.7546771E-02  0.2596534E+00
         22   -1    0    0    0    0  0.00000000000E+00  0.00000000000E+00  0.17829271013E+01  0.17829271013E+01  0.00000000000E+00 0. -1.
         22   -1    0    0    0    0 -0.00000000000E+00 -0.00000000000E+00 -0.43378555061E+01  0.43378555061E+01  0.00000000000E+00 0.  1.
          4    1    1    2  501    0 -0.92639698434E+00 -0.26213949520E+01 -0.13484182357E+01  0.30900088358E+01  0.00000000000E+00 0. -1.
         -4    1    1    2    0  501  0.92639698434E+00  0.26213949520E+01 -0.12065101691E+01  0.30307737716E+01  0.00000000000E+00 0.  1.
<mgrwt>
<rscale>  0 0.27802739E+01</rscale>
<asrwt>0</asrwt>
<pdfrwt beam="1">0</pdfrwt>
<pdfrwt beam="2">0</pdfrwt>
<totfact> 0.22150251E+12</totfact>
</mgrwt>
</event>
<event>
 4    2  0.2130683E+006  0.2241047E+01  0.7546771E-02  0.2835018E+00
         22   -1    0    0    0    0  0.00000000000E+00  0.00000000000E+00  0.22842066252E+00  0.22842066252E+00  0.00000000000E+00 0.  1.
         22   -1    0    0    0    0 -0.00000000000E+00 -0.00000000000E+00 -0.33433255874E+02  0.33433255874E+02  0.00000000000E+00 0. -1.
          4    1    1    2  501    0 -0.98535001674E+00  0.20128035721E+01 -0.26450405148E+02  0.26545173297E+02  0.00000000000E+00 0. -1.
         -4    1    1    2    0  501  0.98535001674E+00 -0.20128035721E+01 -0.67544300633E+01  0.71165032394E+01  0.00000000000E+00 0.  1.
<mgrwt>
<rscale>  0 0.22410473E+01</rscale>
<asrwt>0</asrwt>
<pdfrwt beam="1">0</pdfrwt>
<pdfrwt beam="2">0</pdfrwt>
<totfact> 0.18735767E+12</totfact>
</mgrwt>
</event>
<event>
 4    2  0.2130683E+006  0.2032939E+01  0.7546771E-02  0.2958840E+00
         22   -1    0    0    0    0  0.00000000000E+00  0.00000000000E+00  0.31153243517E+01  0.31153243517E+01  0.00000000000E+00 0. -1.
         22   -1    0    0    0    0 -0.00000000000E+00 -0.00000000000E+00 -0.14171146667E+01  0.14171146667E+01  0.00000000000E+00 0.  1.
          4    1    1    2  501    0  0.15814497777E+01  0.12774411870E+01  0.27641382510E+00  0.20516442158E+01  0.00000000000E+00 0.  1.
         -4    1    1    2    0  501 -0.15814497777E+01 -0.12774411870E+01  0.14217958599E+01  0.24807948026E+01  0.00000000000E+00 0. -1.
<mgrwt>
<rscale>  0 0.20329386E+01</rscale>
<asrwt>0</asrwt>
<pdfrwt beam="1">0</pdfrwt>
<pdfrwt beam="2">0</pdfrwt>
<totfact> 0.42563528E+12</totfact>
</mgrwt>
</event>
<event>
 4    2  0.2130683E+006  0.2233145E+01  0.7546771E-02  0.2839313E+00
         22   -1    0    0    0    0  0.00000000000E+00  0.00000000000E+00  0.67252379047E+01  0.67252379047E+01  0.00000000000E+00 0. -1.
         22   -1    0    0    0    0 -0.00000000000E+00 -0.00000000000E+00 -0.20942596273E+01  0.20942596273E+01  0.00000000000E+00 0.  1.
          4    1    1    2  501    0  0.19917658032E+01  0.10098542755E+01 -0.12286011719E+01  0.25488031529E+01  0.00000000000E+00 0.  1.
         -4    1    1    2    0  501 -0.19917658032E+01 -0.10098542755E+01  0.58595794493E+01  0.62706943791E+01  0.00000000000E+00 0. -1.
<mgrwt>
<rscale>  0 0.22331450E+01</rscale>
<asrwt>0</asrwt>
<pdfrwt beam="1">0</pdfrwt>
<pdfrwt beam="2">0</pdfrwt>
<totfact> 0.10927390E+12</totfact>
</mgrwt>
</event>
<event>
 4    2  0.2130683E+006  0.4356816E+01  0.7546771E-02  0.2213870E+00
         22   -1    0    0    0    0  0.00000000000E+00  0.00000000000E+00  0.12554995887E+02  0.12554995887E+02  0.00000000000E+00 0.  1.
         22   -1    0    0    0    0 -0.00000000000E+00 -0.00000000000E+00 -0.17174996029E+01  0.17174996029E+01  0.00000000000E+00 0. -1.
          4    1    1    2  501    0  0.26234940766E+01 -0.34783797638E+01  0.78878388779E+01  0.90110958887E+01  0.00000000000E+00 0.  1.
         -4    1    1    2    0  501 -0.26234940766E+01  0.34783797638E+01  0.29496574064E+01  0.52613996015E+01  0.00000000000E+00 0. -1.
<mgrwt>
<rscale>  0 0.43568161E+01</rscale>
<asrwt>0</asrwt>
<pdfrwt beam="1">0</pdfrwt>
<pdfrwt beam="2">0</pdfrwt>
<totfact> 0.64679678E+11</totfact>
</mgrwt>
</event>
<event>
 4    2  0.2130683E+006  0.2092120E+01  0.7546771E-02  0.2921204E+00
         22   -1    0    0    0    0  0.00000000000E+00  0.00000000000E+00  0.44187307280E+01  0.44187307280E+01  0.00000000000E+00 0. -1.
         22   -1    0    0    0    0 -0.00000000000E+00 -0.00000000000E+00 -0.37197198506E+01  0.37197198506E+01  0.00000000000E+00 0.  1.
          4    1    1    2  501    0  0.19878860371E+01  0.65212995452E+00 -0.31360506003E+01  0.37698511564E+01  0.00000000000E+00 0.  1.
         -4    1    1    2    0  501 -0.19878860371E+01 -0.65212995452E+00  0.38350614776E+01  0.43685994222E+01  0.00000000000E+00 0. -1.
<mgrwt>
<rscale>  0 0.20921196E+01</rscale>
<asrwt>0</asrwt>
<pdfrwt beam="1">0</pdfrwt>
<pdfrwt beam="2">0</pdfrwt>
<totfact> 0.92059127E+11</totfact>
</mgrwt>
</event>
<event>
 4    2  0.2130683E+006  0.2119947E+01  0.7546771E-02  0.2904213E+00
         22   -1    0    0    0    0  0.00000000000E+00  0.00000000000E+00  0.82472766349E+01  0.82472766349E+01  0.00000000000E+00 0.  1.
         22   -1    0    0    0    0 -0.00000000000E+00 -0.00000000000E+00 -0.96115715471E+00  0.96115715471E+00  0.00000000000E+00 0. -1.
          4    1    1    2  501    0 -0.16158298597E+01  0.13723224017E+01  0.61318527773E+00  0.22068464139E+01  0.00000000000E+00 0. -1.
         -4    1    1    2    0  501  0.16158298597E+01 -0.13723224017E+01  0.66729342025E+01  0.70015873757E+01  0.00000000000E+00 0.  1.
<mgrwt>
<rscale>  0 0.21199469E+01</rscale>
<asrwt>0</asrwt>
<pdfrwt beam="1">0</pdfrwt>
<pdfrwt beam="2">0</pdfrwt>
<totfact> 0.20947167E+12</totfact>
</mgrwt>
</event>
<event>
 4    2  0.2130683E+006  0.2222202E+01  0.7546771E-02  0.2845310E+00
         22   -1    0    0    0    0  0.00000000000E+00  0.00000000000E+00  0.11280624729E+01  0.11280624729E+01  0.00000000000E+00 0.  1.
         22   -1    0    0    0    0 -0.00000000000E+00 -0.00000000000E+00 -0.45797534427E+01  0.45797534427E+01  0.00000000000E+00 0. -1.
          4    1    1    2  501    0  0.98439412846E+00 -0.19922729727E+01 -0.23254726140E+01  0.32165208341E+01  0.00000000000E+00 0. -1.
         -4    1    1    2    0  501 -0.98439412846E+00  0.19922729727E+01 -0.11262183557E+01  0.24912950814E+01  0.00000000000E+00 0.  1.
<mgrwt>
<rscale>  0 0.22222024E+01</rscale>
<asrwt>0</asrwt>
<pdfrwt beam="1">0</pdfrwt>
<pdfrwt beam="2">0</pdfrwt>
<totfact> 0.35160112E+12</totfact>
</mgrwt>
</event>
<event>
 4    2  0.2130683E+006  0.2071584E+01  0.7546771E-02  0.2934026E+00
         22   -1    0    0    0    0  0.00000000000E+00  0.00000000000E+00  0.98173579079E+00  0.98173579079E+00  0.00000000000E+00 0. -1.
         22   -1    0    0    0    0 -0.00000000000E+00 -0.00000000000E+00 -0.56262612038E+01  0.56262612038E+01  0.00000000000E+00 0.  1.
          4    1    1    2  501    0 -0.24438012185E+00  0.20571189007E+01 -0.38826965873E+01  0.44007718192E+01  0.00000000000E+00 0.  1.
         -4    1    1    2    0  501  0.24438012185E+00 -0.20571189007E+01 -0.76182882574E+00  0.22072251754E+01  0.00000000000E+00 0. -1.
<mgrwt>
<rscale>  0 0.20715839E+01</rscale>
<asrwt>0</asrwt>
<pdfrwt beam="1">0</pdfrwt>
<pdfrwt beam="2">0</pdfrwt>
<totfact> 0.32294599E+12</totfact>
</mgrwt>
</event>
<event>
 4    2  0.2130683E+006  0.2193338E+01  0.7546771E-02  0.2861402E+00
         22   -1    0    0    0    0  0.00000000000E+00  0.00000000000E+00  0.66382486383E+01  0.66382486383E+01  0.00000000000E+00 0. -1.
         22   -1    0    0    0    0 -0.00000000000E+00 -0.00000000000E+00 -0.78031976463E+00  0.78031976463E+00  0.00000000000E+00 0.  1.
          4    1    1    2  501    0 -0.17038168290E+01 -0.13812097100E+01  0.39192771227E+01  0.44912654358E+01  0.00000000000E+00 0. -1.
         -4    1    1    2    0  501  0.17038168290E+01  0.13812097100E+01  0.19386517509E+01  0.29273029671E+01  0.00000000000E+00 0.  1.
<mgrwt>
<rscale>  0 0.21933381E+01</rscale>
<asrwt>0</asrwt>
<pdfrwt beam="1">0</pdfrwt>
<pdfrwt beam="2">0</pdfrwt>
<totfact> 0.34450923E+12</totfact>
</mgrwt>
</event>
<event>
 4    2  0.2130683E+006  0.2615873E+01  0.7546771E-02  0.2659549E+00
         22   -1    0    0    0    0  0.00000000000E+00  0.00000000000E+00  0.10039180807E+02  0.10039180807E+02  0.00000000000E+00 0.  1.
         22   -1    0    0    0    0 -0.00000000000E+00 -0.00000000000E+00 -0.12026696974E+01  0.12026696974E+01  0.00000000000E+00 0. -1.
          4    1    1    2  501    0 -0.79925558649E+00  0.24907796609E+01  0.71844986527E+00  0.27127408687E+01  0.00000000000E+00 0. -1.
         -4    1    1    2    0  501  0.79925558649E+00 -0.24907796609E+01  0.81180612439E+01  0.85291096353E+01  0.00000000000E+00 0.  1.
<mgrwt>
<rscale>  0 0.26158732E+01</rscale>
<asrwt>0</asrwt>
<pdfrwt beam="1">0</pdfrwt>
<pdfrwt beam="2">0</pdfrwt>
<totfact> 0.12787657E+12</totfact>
</mgrwt>
</event>
<event>
 4    2  0.2130683E+006  0.3226836E+01  0.7546771E-02  0.2455019E+00
         22   -1    0    0    0    0  0.00000000000E+00  0.00000000000E+00  0.68325325579E+01  0.68325325579E+01  0.00000000000E+00 0.  1.
         22   -1    0    0    0    0 -0.00000000000E+00 -0.00000000000E+00 -0.20256760075E+01  0.20256760075E+01  0.00000000000E+00 0. -1.
          4    1    1    2  501    0  0.22413765156E+01  0.23213579592E+01  0.19917192539E+00  0.32329770979E+01  0.00000000000E+00 0. -1.
         -4    1    1    2    0  501 -0.22413765156E+01 -0.23213579592E+01  0.46076846250E+01  0.56252314675E+01  0.00000000000E+00 0.  1.
<mgrwt>
<rscale>  0 0.32268361E+01</rscale>
<asrwt>0</asrwt>
<pdfrwt beam="1">0</pdfrwt>
<pdfrwt beam="2">0</pdfrwt>
<totfact> 0.11144906E+12</totfact>
</mgrwt>
</event>
<event>
 4    2  0.2130683E+006  0.2669348E+01  0.7546771E-02  0.2638272E+00
         22   -1    0    0    0    0  0.00000000000E+00  0.00000000000E+00  0.29843516041E+02  0.29843516041E+02  0.00000000000E+00 0. -1.
         22   -1    0    0    0    0 -0.00000000000E+00 -0.00000000000E+00 -0.24140493600E+00  0.24140493600E+00  0.00000000000E+00 0.  1.
          4    1    1    2  501    0  0.19664111886E+01  0.18051719631E+01  0.13226326073E+02  0.13493002637E+02  0.00000000000E+00 0. -1.
         -4    1    1    2    0  501 -0.19664111886E+01 -0.18051719631E+01  0.16375785032E+02  0.16591918340E+02  0.00000000000E+00 0.  1.
<mgrwt>
<rscale>  0 0.26693480E+01</rscale>
<asrwt>0</asrwt>
<pdfrwt beam="1">0</pdfrwt>
<pdfrwt beam="2">0</pdfrwt>
<totfact> 0.20366444E+12</totfact>
</mgrwt>
</event>
<event>
 4    2  0.2130683E+006  0.2194849E+01  0.7546771E-02  0.2860550E+00
         22   -1    0    0    0    0  0.00000000000E+00  0.00000000000E+00  0.65369238276E+00  0.65369238276E+00  0.00000000000E+00 0. -1.
         22   -1    0    0    0    0 -0.00000000000E+00 -0.00000000000E+00 -0.79612481235E+01  0.79612481235E+01  0.00000000000E+00 0.  1.
          4    1    1    2  501    0  0.10785471724E+01  0.19115691056E+01 -0.24793820326E+01  0.33112981914E+01  0.00000000000E+00 0. -1.
         -4    1    1    2    0  501 -0.10785471724E+01 -0.19115691056E+01 -0.48281737081E+01  0.53036423149E+01  0.00000000000E+00 0.  1.
<mgrwt>
<rscale>  0 0.21948486E+01</rscale>
<asrwt>0</asrwt>
<pdfrwt beam="1">0</pdfrwt>
<pdfrwt beam="2">0</pdfrwt>
<totfact> 0.33883860E+12</totfact>
</mgrwt>
</event>
<event>
 4    2  0.2130683E+006  0.2282885E+01  0.7546771E-02  0.2812747E+00
         22   -1    0    0    0    0  0.00000000000E+00  0.00000000000E+00  0.22488522662E+01  0.22488522662E+01  0.00000000000E+00 0. -1.
         22   -1    0    0    0    0 -0.00000000000E+00 -0.00000000000E+00 -0.24498767541E+01  0.24498767541E+01  0.00000000000E+00 0.  1.
          4    1    1    2  501    0 -0.22828270662E+01 -0.16215509222E-01  0.44574291991E+00  0.23259942192E+01  0.00000000000E+00 0. -1.
         -4    1    1    2    0  501  0.22828270662E+01  0.16215509222E-01 -0.64676740783E+00  0.23727348012E+01  0.00000000000E+00 0.  1.
<mgrwt>
<rscale>  0 0.22828847E+01</rscale>
<asrwt>0</asrwt>
<pdfrwt beam="1">0</pdfrwt>
<pdfrwt beam="2">0</pdfrwt>
<totfact> 0.33047897E+12</totfact>
</mgrwt>
</event>
<event>
 4    2  0.2130683E+006  0.2092064E+01  0.7546771E-02  0.2921238E+00
         22   -1    0    0    0    0  0.00000000000E+00  0.00000000000E+00  0.57818755643E+00  0.57818755643E+00  0.00000000000E+00 0.  1.
         22   -1    0    0    0    0 -0.00000000000E+00 -0.00000000000E+00 -0.86920447076E+01  0.86920447076E+01  0.00000000000E+00 0. -1.
          4    1    1    2  501    0 -0.55098743454E+00  0.20182037156E+01 -0.57224634299E+01  0.60928910295E+01  0.00000000000E+00 0. -1.
         -4    1    1    2    0  501  0.55098743454E+00 -0.20182037156E+01 -0.23913937212E+01  0.31773412345E+01  0.00000000000E+00 0.  1.
<mgrwt>
<rscale>  0 0.20920644E+01</rscale>
<asrwt>0</asrwt>
<pdfrwt beam="1">0</pdfrwt>
<pdfrwt beam="2">0</pdfrwt>
<totfact> 0.35033257E+12</totfact>
</mgrwt>
</event>
<event>
 4    2  0.2130683E+006  0.3755693E+01  0.7546771E-02  0.2326577E+00
         22   -1    0    0    0    0  0.00000000000E+00  0.00000000000E+00  0.93032232385E+00  0.93032232385E+00  0.00000000000E+00 0.  1.
         22   -1    0    0    0    0 -0.00000000000E+00 -0.00000000000E+00 -0.15918245325E+02  0.15918245325E+02  0.00000000000E+00 0. -1.
          4    1    1    2  501    0  0.37410657382E+01 -0.33114554298E+00 -0.56573617721E+01  0.67905060524E+01  0.00000000000E+00 0.  1.
         -4    1    1    2    0  501 -0.37410657382E+01  0.33114554298E+00 -0.93305612288E+01  0.10058061596E+02  0.00000000000E+00 0. -1.
<mgrwt>
<rscale>  0 0.37556930E+01</rscale>
<asrwt>0</asrwt>
<pdfrwt beam="1">0</pdfrwt>
<pdfrwt beam="2">0</pdfrwt>
<totfact> 0.97638466E+11</totfact>
</mgrwt>
</event>
<event>
 4    2  0.2130683E+006  0.2397771E+01  0.7546771E-02  0.2755390E+00
         22   -1    0    0    0    0  0.00000000000E+00  0.00000000000E+00  0.34809459752E+01  0.34809459752E+01  0.00000000000E+00 0. -1.
         22   -1    0    0    0    0 -0.00000000000E+00 -0.00000000000E+00 -0.16541276530E+01  0.16541276530E+01  0.00000000000E+00 0.  1.
          4    1    1    2  501    0  0.12828856874E+01 -0.20257127865E+01  0.10127579900E+01  0.26028804672E+01  0.00000000000E+00 0. -1.
         -4    1    1    2    0  501 -0.12828856874E+01  0.20257127865E+01  0.81406033220E+00  0.25321931610E+01  0.00000000000E+00 0.  1.
<mgrwt>
<rscale>  0 0.23977715E+01</rscale>
<asrwt>0</asrwt>
<pdfrwt beam="1">0</pdfrwt>
<pdfrwt beam="2">0</pdfrwt>
<totfact> 0.31284323E+12</totfact>
</mgrwt>
</event>
<event>
 4    2  0.2130683E+006  0.3252312E+01  0.7546771E-02  0.2447997E+00
         22   -1    0    0    0    0  0.00000000000E+00  0.00000000000E+00  0.70886819269E+00  0.70886819269E+00  0.00000000000E+00 0. -1.
         22   -1    0    0    0    0 -0.00000000000E+00 -0.00000000000E+00 -0.17014105053E+02  0.17014105053E+02  0.00000000000E+00 0.  1.
          4    1    1    2  501    0  0.12490182285E+01  0.30029131996E+01 -0.11260200533E+02  0.11720479950E+02  0.00000000000E+00 0.  1.
         -4    1    1    2    0  501 -0.12490182285E+01 -0.30029131996E+01 -0.50450363279E+01  0.60024932961E+01  0.00000000000E+00 0. -1.
<mgrwt>
<rscale>  0 0.32523121E+01</rscale>
<asrwt>0</asrwt>
<pdfrwt beam="1">0</pdfrwt>
<pdfrwt beam="2">0</pdfrwt>
<totfact> 0.12252975E+12</totfact>
</mgrwt>
</event>
<event>
 4    2  0.2130683E+006  0.2501489E+01  0.7546771E-02  0.2707874E+00
         22   -1    0    0    0    0  0.00000000000E+00  0.00000000000E+00  0.29086495828E+02  0.29086495828E+02  0.00000000000E+00 0. -1.
         22   -1    0    0    0    0 -0.00000000000E+00 -0.00000000000E+00 -0.23303049500E+00  0.23303049500E+00  0.00000000000E+00 0.  1.
          4    1    1    2  501    0 -0.24043126593E+01  0.69045442191E+00  0.10363942529E+02  0.10661554831E+02  0.00000000000E+00 0.  1.
         -4    1    1    2    0  501  0.24043126593E+01 -0.69045442191E+00  0.18489522805E+02  0.18657971493E+02  0.00000000000E+00 0. -1.
<mgrwt>
<rscale>  0 0.25014889E+01</rscale>
<asrwt>0</asrwt>
<pdfrwt beam="1">0</pdfrwt>
<pdfrwt beam="2">0</pdfrwt>
<totfact> 0.21890535E+12</totfact>
</mgrwt>
</event>
<event>
 4    2  0.2130683E+006  0.4939100E+01  0.7546771E-02  0.2130344E+00
         22   -1    0    0    0    0  0.00000000000E+00  0.00000000000E+00  0.15192705978E+02  0.15192705978E+02  0.00000000000E+00 0.  1.
         22   -1    0    0    0    0 -0.00000000000E+00 -0.00000000000E+00 -0.37091744195E+01  0.37091744195E+01  0.00000000000E+00 0. -1.
          4    1    1    2  501    0 -0.28190067103E+01  0.40556027247E+01 -0.13753899758E+01  0.51270273920E+01  0.00000000000E+00 0. -1.
         -4    1    1    2    0  501  0.28190067103E+01 -0.40556027247E+01  0.12858921534E+02  0.13774853005E+02  0.00000000000E+00 0.  1.
<mgrwt>
<rscale>  0 0.49391004E+01</rscale>
<asrwt>0</asrwt>
<pdfrwt beam="1">0</pdfrwt>
<pdfrwt beam="2">0</pdfrwt>
<totfact> 0.20897817E+11</totfact>
</mgrwt>
</event>
<event>
 4    2  0.2130683E+006  0.3179683E+01  0.7546771E-02  0.2468277E+00
         22   -1    0    0    0    0  0.00000000000E+00  0.00000000000E+00  0.29090971604E+02  0.29090971604E+02  0.00000000000E+00 0.  1.
         22   -1    0    0    0    0 -0.00000000000E+00 -0.00000000000E+00 -0.55230241398E+00  0.55230241398E+00  0.00000000000E+00 0. -1.
          4    1    1    2  501    0  0.22139080416E+01 -0.22823224253E+01  0.52447155460E+01  0.61333046254E+01  0.00000000000E+00 0. -1.
         -4    1    1    2    0  501 -0.22139080416E+01  0.22823224253E+01  0.23293953644E+02  0.23509969392E+02  0.00000000000E+00 0.  1.
<mgrwt>
<rscale>  0 0.31796831E+01</rscale>
<asrwt>0</asrwt>
<pdfrwt beam="1">0</pdfrwt>
<pdfrwt beam="2">0</pdfrwt>
<totfact> 0.82972201E+11</totfact>
</mgrwt>
</event>
<event>
 4    2  0.2130683E+006  0.2176866E+01  0.7546771E-02  0.2870769E+00
         22   -1    0    0    0    0  0.00000000000E+00  0.00000000000E+00  0.38574979028E+01  0.38574979028E+01  0.00000000000E+00 0.  1.
         22   -1    0    0    0    0 -0.00000000000E+00 -0.00000000000E+00 -0.14832966993E+01  0.14832966993E+01  0.00000000000E+00 0. -1.
          4    1    1    2  501    0 -0.21728489522E+01  0.13218851216E+00  0.80220212908E-01  0.21783437871E+01  0.00000000000E+00 0. -1.
         -4    1    1    2    0  501  0.21728489522E+01 -0.13218851216E+00  0.22939809906E+01  0.31624508150E+01  0.00000000000E+00 0.  1.
<mgrwt>
<rscale>  0 0.21768662E+01</rscale>
<asrwt>0</asrwt>
<pdfrwt beam="1">0</pdfrwt>
<pdfrwt beam="2">0</pdfrwt>
<totfact> 0.31438257E+12</totfact>
</mgrwt>
</event>
<event>
 4    2  0.2130683E+006  0.3266549E+01  0.7546771E-02  0.2444115E+00
         22   -1    0    0    0    0  0.00000000000E+00  0.00000000000E+00  0.55379112462E+01  0.55379112462E+01  0.00000000000E+00 0.  1.
         22   -1    0    0    0    0 -0.00000000000E+00 -0.00000000000E+00 -0.12027067875E+02  0.12027067875E+02  0.00000000000E+00 0. -1.
          4    1    1    2  501    0  0.31463970695E+01 -0.87779578823E+00 -0.11292886988E+02  0.11755834147E+02  0.00000000000E+00 0. -1.
         -4    1    1    2    0  501 -0.31463970695E+01  0.87779578823E+00  0.48037303594E+01  0.58091449741E+01  0.00000000000E+00 0.  1.
<mgrwt>
<rscale>  0 0.32665486E+01</rscale>
<asrwt>0</asrwt>
<pdfrwt beam="1">0</pdfrwt>
<pdfrwt beam="2">0</pdfrwt>
<totfact> 0.17333643E+11</totfact>
</mgrwt>
</event>
<event>
 4    2  0.2130683E+006  0.2707375E+01  0.7546771E-02  0.2623611E+00
         22   -1    0    0    0    0  0.00000000000E+00  0.00000000000E+00  0.33606549534E+01  0.33606549534E+01  0.00000000000E+00 0.  1.
         22   -1    0    0    0    0 -0.00000000000E+00 -0.00000000000E+00 -0.24887244332E+01  0.24887244332E+01  0.00000000000E+00 0. -1.
          4    1    1    2  501    0  0.24617376420E+01  0.11268215512E+01 -0.59231466534E+00  0.27714104151E+01  0.00000000000E+00 0. -1.
         -4    1    1    2    0  501 -0.24617376420E+01 -0.11268215512E+01  0.14642451856E+01  0.30779689715E+01  0.00000000000E+00 0.  1.
<mgrwt>
<rscale>  0 0.27073749E+01</rscale>
<asrwt>0</asrwt>
<pdfrwt beam="1">0</pdfrwt>
<pdfrwt beam="2">0</pdfrwt>
<totfact> 0.20315237E+12</totfact>
</mgrwt>
</event>
<event>
 4    2  0.2130683E+006  0.3376096E+01  0.7546771E-02  0.2415214E+00
         22   -1    0    0    0    0  0.00000000000E+00  0.00000000000E+00  0.12115049983E+02  0.12115049983E+02  0.00000000000E+00 0.  1.
         22   -1    0    0    0    0 -0.00000000000E+00 -0.00000000000E+00 -0.78683498650E+01  0.78683498650E+01  0.00000000000E+00 0. -1.
          4    1    1    2  501    0 -0.33112400673E+01  0.65856927528E+00 -0.72519872596E+01  0.79993339402E+01  0.00000000000E+00 0. -1.
         -4    1    1    2    0  501  0.33112400673E+01 -0.65856927528E+00  0.11498687377E+02  0.11984065907E+02  0.00000000000E+00 0.  1.
<mgrwt>
<rscale>  0 0.33760960E+01</rscale>
<asrwt>0</asrwt>
<pdfrwt beam="1">0</pdfrwt>
<pdfrwt beam="2">0</pdfrwt>
<totfact> 0.11295408E+11</totfact>
</mgrwt>
</event>
<event>
 4    2  0.2130683E+006  0.2609020E+01  0.7546771E-02  0.2662334E+00
         22   -1    0    0    0    0  0.00000000000E+00  0.00000000000E+00  0.62028182881E+01  0.62028182881E+01  0.00000000000E+00 0. -1.
         22   -1    0    0    0    0 -0.00000000000E+00 -0.00000000000E+00 -0.11848074609E+01  0.11848074609E+01  0.00000000000E+00 0.  1.
          4    1    1    2  501    0 -0.23268891742E+01 -0.11800722537E+01  0.15057284006E+01  0.30123415758E+01  0.00000000000E+00 0.  1.
         -4    1    1    2    0  501  0.23268891742E+01  0.11800722537E+01  0.35122824266E+01  0.43752841732E+01  0.00000000000E+00 0. -1.
<mgrwt>
<rscale>  0 0.26090197E+01</rscale>
<asrwt>0</asrwt>
<pdfrwt beam="1">0</pdfrwt>
<pdfrwt beam="2">0</pdfrwt>
<totfact> 0.23194262E+12</totfact>
</mgrwt>
</event>
<event>
 4    2  0.2130683E+006  0.4722742E+01  0.7546771E-02  0.2157628E+00
         22   -1    0    0    0    0  0.00000000000E+00  0.00000000000E+00  0.35435678904E+01  0.35435678904E+01  0.00000000000E+00 0.  1.
         22   -1    0    0    0    0 -0.00000000000E+00 -0.00000000000E+00 -0.93415800015E+01  0.93415800015E+01  0.00000000000E+00 0. -1.
          4    1    1    2  501    0  0.41864007589E+01  0.21859409067E+01 -0.65786452073E+01  0.80983246246E+01  0.00000000000E+00 0. -1.
         -4    1    1    2    0  501 -0.41864007589E+01 -0.21859409067E+01  0.78063309616E+00  0.47868232673E+01  0.00000000000E+00 0.  1.
<mgrwt>
<rscale>  0 0.47227417E+01</rscale>
<asrwt>0</asrwt>
<pdfrwt beam="1">0</pdfrwt>
<pdfrwt beam="2">0</pdfrwt>
<totfact> 0.39892666E+11</totfact>
</mgrwt>
</event>
<event>
 4    2  0.2130683E+006  0.2653945E+01  0.7546771E-02  0.2644320E+00
         22   -1    0    0    0    0  0.00000000000E+00  0.00000000000E+00  0.40717557399E+01  0.40717557399E+01  0.00000000000E+00 0. -1.
         22   -1    0    0    0    0 -0.00000000000E+00 -0.00000000000E+00 -0.17299744085E+01  0.17299744085E+01  0.00000000000E+00 0.  1.
          4    1    1    2  501    0  0.26460221870E+01  0.20492043525E+00  0.11439527131E+01  0.28899919738E+01  0.00000000000E+00 0. -1.
         -4    1    1    2    0  501 -0.26460221870E+01 -0.20492043525E+00  0.11978286182E+01  0.29117381746E+01  0.00000000000E+00 0.  1.
<mgrwt>
<rscale>  0 0.26539453E+01</rscale>
<asrwt>0</asrwt>
<pdfrwt beam="1">0</pdfrwt>
<pdfrwt beam="2">0</pdfrwt>
<totfact> 0.24710761E+12</totfact>
</mgrwt>
</event>
<event>
 4    2  0.2130683E+006  0.2139911E+01  0.7546771E-02  0.2892287E+00
         22   -1    0    0    0    0  0.00000000000E+00  0.00000000000E+00  0.11144163477E+01  0.11144163477E+01  0.00000000000E+00 0. -1.
         22   -1    0    0    0    0 -0.00000000000E+00 -0.00000000000E+00 -0.22508738645E+02  0.22508738645E+02  0.00000000000E+00 0.  1.
          4    1    1    2  501    0 -0.10943916252E+01  0.18388930850E+01 -0.21376325287E+02  0.21483167913E+02  0.00000000000E+00 0.  1.
         -4    1    1    2    0  501  0.10943916252E+01 -0.18388930850E+01 -0.17997009985E-01  0.21399870793E+01  0.00000000000E+00 0. -1.
<mgrwt>
<rscale>  0 0.21399114E+01</rscale>
<asrwt>0</asrwt>
<pdfrwt beam="1">0</pdfrwt>
<pdfrwt beam="2">0</pdfrwt>
<totfact> 0.51625737E+11</totfact>
</mgrwt>
</event>
<event>
 4    2  0.2130683E+006  0.2659346E+01  0.7546771E-02  0.2642192E+00
         22   -1    0    0    0    0  0.00000000000E+00  0.00000000000E+00  0.55120323217E+02  0.55120323217E+02  0.00000000000E+00 0.  1.
         22   -1    0    0    0    0 -0.00000000000E+00 -0.00000000000E+00 -0.20710651953E+00  0.20710651953E+00  0.00000000000E+00 0. -1.
          4    1    1    2  501    0 -0.20284256436E+01  0.17197700194E+01  0.10392421898E+02  0.10727280756E+02  0.00000000000E+00 0. -1.
         -4    1    1    2    0  501  0.20284256436E+01 -0.17197700194E+01  0.44520794800E+02  0.44600148981E+02  0.00000000000E+00 0.  1.
<mgrwt>
<rscale>  0 0.26593457E+01</rscale>
<asrwt>0</asrwt>
<pdfrwt beam="1">0</pdfrwt>
<pdfrwt beam="2">0</pdfrwt>
<totfact> 0.10886548E+12</totfact>
</mgrwt>
</event>
<event>
 4    2  0.2130683E+006  0.2138402E+01  0.7546771E-02  0.2893181E+00
         22   -1    0    0    0    0  0.00000000000E+00  0.00000000000E+00  0.12993220505E+01  0.12993220505E+01  0.00000000000E+00 0.  1.
         22   -1    0    0    0    0 -0.00000000000E+00 -0.00000000000E+00 -0.37702881696E+01  0.37702881696E+01  0.00000000000E+00 0. -1.
          4    1    1    2  501    0  0.22034528810E+00  0.21270197781E+01 -0.18894311041E+01  0.28535443013E+01  0.00000000000E+00 0.  1.
         -4    1    1    2    0  501 -0.22034528810E+00 -0.21270197781E+01 -0.58153501505E+00  0.22160659187E+01  0.00000000000E+00 0. -1.
<mgrwt>
<rscale>  0 0.21384025E+01</rscale>
<asrwt>0</asrwt>
<pdfrwt beam="1">0</pdfrwt>
<pdfrwt beam="2">0</pdfrwt>
<totfact> 0.37601154E+12</totfact>
</mgrwt>
</event>
<event>
 4    2  0.2130683E+006  0.5539509E+01  0.7546771E-02  0.2063626E+00
         22   -1    0    0    0    0  0.00000000000E+00  0.00000000000E+00  0.90459804511E+01  0.90459804511E+01  0.00000000000E+00 0. -1.
         22   -1    0    0    0    0 -0.00000000000E+00 -0.00000000000E+00 -0.50662574025E+01  0.50662574025E+01  0.00000000000E+00 0.  1.
          4    1    1    2  501    0  0.45163476932E+01  0.32076096343E+01 -0.20661760859E+01  0.59122956345E+01  0.00000000000E+00 0.  1.
         -4    1    1    2    0  501 -0.45163476932E+01 -0.32076096343E+01  0.60458991345E+01  0.81999422191E+01  0.00000000000E+00 0. -1.
<mgrwt>
<rscale>  0 0.55395086E+01</rscale>
<asrwt>0</asrwt>
<pdfrwt beam="1">0</pdfrwt>
<pdfrwt beam="2">0</pdfrwt>
<totfact> 0.27212917E+11</totfact>
</mgrwt>
</event>
<event>
 4    2  0.2130683E+006  0.2847219E+01  0.7546771E-02  0.2572782E+00
         22   -1    0    0    0    0  0.00000000000E+00  0.00000000000E+00  0.36109826913E+01  0.36109826913E+01  0.00000000000E+00 0.  1.
         22   -1    0    0    0    0 -0.00000000000E+00 -0.00000000000E+00 -0.92944506661E+01  0.92944506661E+01  0.00000000000E+00 0. -1.
          4    1    1    2  501    0  0.23809801518E+01 -0.15612774727E+01 -0.84613726410E+01  0.89275685828E+01  0.00000000000E+00 0. -1.
         -4    1    1    2    0  501 -0.23809801518E+01  0.15612774727E+01  0.27779046663E+01  0.39778647746E+01  0.00000000000E+00 0.  1.
<mgrwt>
<rscale>  0 0.28472186E+01</rscale>
<asrwt>0</asrwt>
<pdfrwt beam="1">0</pdfrwt>
<pdfrwt beam="2">0</pdfrwt>
<totfact> 0.39258830E+11</totfact>
</mgrwt>
</event>
<event>
 4    2  0.2130683E+006  0.4228313E+01  0.7546771E-02  0.2235666E+00
         22   -1    0    0    0    0  0.00000000000E+00  0.00000000000E+00  0.48934376698E+02  0.48934376698E+02  0.00000000000E+00 0. -1.
         22   -1    0    0    0    0 -0.00000000000E+00 -0.00000000000E+00 -0.50826877642E+00  0.50826877642E+00  0.00000000000E+00 0.  1.
          4    1    1    2  501    0  0.71592632027E+00 -0.41672631691E+01  0.11104481370E+02  0.11882261540E+02  0.00000000000E+00 0.  1.
         -4    1    1    2    0  501 -0.71592632027E+00  0.41672631691E+01  0.37321626552E+02  0.37560383934E+02  0.00000000000E+00 0. -1.
<mgrwt>
<rscale>  0 0.42283132E+01</rscale>
<asrwt>0</asrwt>
<pdfrwt beam="1">0</pdfrwt>
<pdfrwt beam="2">0</pdfrwt>
<totfact> 0.46517429E+11</totfact>
</mgrwt>
</event>
<event>
 4    2  0.2130683E+006  0.3147290E+01  0.7546771E-02  0.2477589E+00
         22   -1    0    0    0    0  0.00000000000E+00  0.00000000000E+00  0.43179943843E+00  0.43179943843E+00  0.00000000000E+00 0.  1.
         22   -1    0    0    0    0 -0.00000000000E+00 -0.00000000000E+00 -0.23245577866E+02  0.23245577866E+02  0.00000000000E+00 0. -1.
          4    1    1    2  501    0  0.19921363795E+01 -0.24365598596E+01 -0.10049285413E+02  0.10530601532E+02  0.00000000000E+00 0.  1.
         -4    1    1    2    0  501 -0.19921363795E+01  0.24365598596E+01 -0.12764493014E+02  0.13146775773E+02  0.00000000000E+00 0. -1.
<mgrwt>
<rscale>  0 0.31472895E+01</rscale>
<asrwt>0</asrwt>
<pdfrwt beam="1">0</pdfrwt>
<pdfrwt beam="2">0</pdfrwt>
<totfact> 0.14546285E+12</totfact>
</mgrwt>
</event>
<event>
 4    2  0.2130683E+006  0.2230716E+01  0.7546771E-02  0.2840640E+00
         22   -1    0    0    0    0  0.00000000000E+00  0.00000000000E+00  0.13216780932E+02  0.13216780932E+02  0.00000000000E+00 0. -1.
         22   -1    0    0    0    0 -0.00000000000E+00 -0.00000000000E+00 -0.64352263542E+00  0.64352263542E+00  0.00000000000E+00 0.  1.
          4    1    1    2  501    0  0.18293211227E+01  0.12765879411E+01  0.18225031948E+01  0.28805573135E+01  0.00000000000E+00 0.  1.
         -4    1    1    2    0  501 -0.18293211227E+01 -0.12765879411E+01  0.10750755102E+02  0.10979746254E+02  0.00000000000E+00 0. -1.
<mgrwt>
<rscale>  0 0.22307157E+01</rscale>
<asrwt>0</asrwt>
<pdfrwt beam="1">0</pdfrwt>
<pdfrwt beam="2">0</pdfrwt>
<totfact> 0.18657231E+12</totfact>
</mgrwt>
</event>
<event>
 4    2  0.2130683E+006  0.3167386E+01  0.7546771E-02  0.2471792E+00
         22   -1    0    0    0    0  0.00000000000E+00  0.00000000000E+00  0.12195952240E+02  0.12195952240E+02  0.00000000000E+00 0. -1.
         22   -1    0    0    0    0 -0.00000000000E+00 -0.00000000000E+00 -0.12410966033E+01  0.12410966033E+01  0.00000000000E+00 0.  1.
          4    1    1    2  501    0 -0.30076733263E+01 -0.99309494476E+00  0.15760377978E+01  0.35378286487E+01  0.00000000000E+00 0.  1.
         -4    1    1    2    0  501  0.30076733263E+01  0.99309494476E+00  0.93788178389E+01  0.98992201946E+01  0.00000000000E+00 0. -1.
<mgrwt>
<rscale>  0 0.31673864E+01</rscale>
<asrwt>0</asrwt>
<pdfrwt beam="1">0</pdfrwt>
<pdfrwt beam="2">0</pdfrwt>
<totfact> 0.97366614E+11</totfact>
</mgrwt>
</event>
<event>
 4    2  0.2130683E+006  0.3501722E+01  0.7546771E-02  0.2384032E+00
         22   -1    0    0    0    0  0.00000000000E+00  0.00000000000E+00  0.92692358045E+01  0.92692358045E+01  0.00000000000E+00 0.  1.
         22   -1    0    0    0    0 -0.00000000000E+00 -0.00000000000E+00 -0.24005676234E+01  0.24005676234E+01  0.00000000000E+00 0. -1.
          4    1    1    2  501    0 -0.34784942310E+01  0.40265850691E+00 -0.47518814134E+00  0.35338165994E+01  0.00000000000E+00 0. -1.
         -4    1    1    2    0  501  0.34784942310E+01 -0.40265850691E+00  0.73438563224E+01  0.81359868284E+01  0.00000000000E+00 0.  1.
<mgrwt>
<rscale>  0 0.35017219E+01</rscale>
<asrwt>0</asrwt>
<pdfrwt beam="1">0</pdfrwt>
<pdfrwt beam="2">0</pdfrwt>
<totfact> 0.63447958E+11</totfact>
</mgrwt>
</event>
<event>
 4    2  0.2130683E+006  0.2434566E+01  0.7546771E-02  0.2738100E+00
         22   -1    0    0    0    0  0.00000000000E+00  0.00000000000E+00  0.48386613392E+01  0.48386613392E+01  0.00000000000E+00 0. -1.
         22   -1    0    0    0    0 -0.00000000000E+00 -0.00000000000E+00 -0.13181327762E+01  0.13181327762E+01  0.00000000000E+00 0.  1.
          4    1    1    2  501    0  0.19213243064E+01 -0.14952005471E+01  0.94176937670E+00  0.26103718749E+01  0.00000000000E+00 0. -1.
         -4    1    1    2    0  501 -0.19213243064E+01  0.14952005471E+01  0.25787591863E+01  0.35464222404E+01  0.00000000000E+00 0.  1.
<mgrwt>
<rscale>  0 0.24345660E+01</rscale>
<asrwt>0</asrwt>
<pdfrwt beam="1">0</pdfrwt>
<pdfrwt beam="2">0</pdfrwt>
<totfact> 0.27563114E+12</totfact>
</mgrwt>
</event>
<event>
 4    2  0.2130683E+006  0.2042668E+01  0.7546771E-02  0.2952506E+00
         22   -1    0    0    0    0  0.00000000000E+00  0.00000000000E+00  0.10173110408E+01  0.10173110408E+01  0.00000000000E+00 0.  1.
         22   -1    0    0    0    0 -0.00000000000E+00 -0.00000000000E+00 -0.44310730191E+01  0.44310730191E+01  0.00000000000E+00 0. -1.
          4    1    1    2  501    0 -0.19813295921E+01  0.49681648968E+00 -0.96392335640E+00  0.22586814326E+01  0.00000000000E+00 0.  1.
         -4    1    1    2    0  501  0.19813295921E+01 -0.49681648968E+00 -0.24498386220E+01  0.31897026273E+01  0.00000000000E+00 0. -1.
<mgrwt>
<rscale>  0 0.20426682E+01</rscale>
<asrwt>0</asrwt>
<pdfrwt beam="1">0</pdfrwt>
<pdfrwt beam="2">0</pdfrwt>
<totfact> 0.41140087E+12</totfact>
</mgrwt>
</event>
<event>
 4    2  0.2130683E+006  0.2015753E+01  0.7546771E-02  0.2970173E+00
         22   -1    0    0    0    0  0.00000000000E+00  0.00000000000E+00  0.21974955066E+02  0.21974955066E+02  0.00000000000E+00 0. -1.
         22   -1    0    0    0    0 -0.00000000000E+00 -0.00000000000E+00 -0.25075879248E+00  0.25075879248E+00  0.00000000000E+00 0.  1.
          4    1    1    2  501    0 -0.57650675826E-01  0.20149286985E+01  0.51671377781E+01  0.55464019038E+01  0.00000000000E+00 0.  1.
         -4    1    1    2    0  501  0.57650675826E-01 -0.20149286985E+01  0.16557058496E+02  0.16679311955E+02  0.00000000000E+00 0. -1.
<mgrwt>
<rscale>  0 0.20157533E+01</rscale>
<asrwt>0</asrwt>
<pdfrwt beam="1">0</pdfrwt>
<pdfrwt beam="2">0</pdfrwt>
<totfact> 0.28727796E+12</totfact>
</mgrwt>
</event>
<event>
 4    2  0.2130683E+006  0.2837440E+01  0.7546771E-02  0.2576188E+00
         22   -1    0    0    0    0  0.00000000000E+00  0.00000000000E+00  0.49518050552E+01  0.49518050552E+01  0.00000000000E+00 0. -1.
         22   -1    0    0    0    0 -0.00000000000E+00 -0.00000000000E+00 -0.16475684295E+01  0.16475684295E+01  0.00000000000E+00 0.  1.
          4    1    1    2  501    0 -0.51486402635E+00  0.27903366116E+01  0.20306649543E+01  0.34892210489E+01  0.00000000000E+00 0. -1.
         -4    1    1    2    0  501  0.51486402635E+00 -0.27903366116E+01  0.12735716713E+01  0.31101524358E+01  0.00000000000E+00 0.  1.
<mgrwt>
<rscale>  0 0.28374396E+01</rscale>
<asrwt>0</asrwt>
<pdfrwt beam="1">0</pdfrwt>
<pdfrwt beam="2">0</pdfrwt>
<totfact> 0.20750061E+12</totfact>
</mgrwt>
</event>
<event>
 4    2  0.2130683E+006  0.2686802E+01  0.7546771E-02  0.2631496E+00
         22   -1    0    0    0    0  0.00000000000E+00  0.00000000000E+00  0.28929330820E+01  0.28929330820E+01  0.00000000000E+00 0.  1.
         22   -1    0    0    0    0 -0.00000000000E+00 -0.00000000000E+00 -0.43016268326E+01  0.43016268326E+01  0.00000000000E+00 0. -1.
          4    1    1    2  501    0 -0.26244689925E+01  0.57538295681E+00 -0.30353834815E+01  0.40536965747E+01  0.00000000000E+00 0. -1.
         -4    1    1    2    0  501  0.26244689925E+01 -0.57538295681E+00  0.16266897308E+01  0.31408633399E+01  0.00000000000E+00 0.  1.
<mgrwt>
<rscale>  0 0.26868016E+01</rscale>
<asrwt>0</asrwt>
<pdfrwt beam="1">0</pdfrwt>
<pdfrwt beam="2">0</pdfrwt>
<totfact> 0.12754898E+12</totfact>
</mgrwt>
</event>
<event>
 4    2  0.2130683E+006  0.2467942E+01  0.7546771E-02  0.2722835E+00
         22   -1    0    0    0    0  0.00000000000E+00  0.00000000000E+00  0.32619498511E+01  0.32619498511E+01  0.00000000000E+00 0. -1.
         22   -1    0    0    0    0 -0.00000000000E+00 -0.00000000000E+00 -0.19087363351E+01  0.19087363351E+01  0.00000000000E+00 0.  1.
          4    1    1    2  501    0  0.15181116009E+01 -0.19457833929E+01  0.10579554882E+01  0.26851453703E+01  0.00000000000E+00 0. -1.
         -4    1    1    2    0  501 -0.15181116009E+01  0.19457833929E+01  0.29525802773E+00  0.24855408159E+01  0.00000000000E+00 0.  1.
<mgrwt>
<rscale>  0 0.24679416E+01</rscale>
<asrwt>0</asrwt>
<pdfrwt beam="1">0</pdfrwt>
<pdfrwt beam="2">0</pdfrwt>
<totfact> 0.28615572E+12</totfact>
</mgrwt>
</event>
<event>
 4    2  0.2130683E+006  0.3832554E+01  0.7546771E-02  0.2310492E+00
         22   -1    0    0    0    0  0.00000000000E+00  0.00000000000E+00  0.38333943396E+02  0.38333943396E+02  0.00000000000E+00 0. -1.
         22   -1    0    0    0    0 -0.00000000000E+00 -0.00000000000E+00 -0.39661034744E+00  0.39661034744E+00  0.00000000000E+00 0.  1.
          4    1    1    2  501    0 -0.57000230359E+00 -0.37899299319E+01  0.15403958209E+02  0.15873575527E+02  0.00000000000E+00 0. -1.
         -4    1    1    2    0  501  0.57000230359E+00  0.37899299319E+01  0.22533374840E+02  0.22856978216E+02  0.00000000000E+00 0.  1.
<mgrwt>
<rscale>  0 0.38325542E+01</rscale>
<asrwt>0</asrwt>
<pdfrwt beam="1">0</pdfrwt>
<pdfrwt beam="2">0</pdfrwt>
<totfact> 0.84618165E+11</totfact>
</mgrwt>
</event>
<event>
 4    2  0.2130683E+006  0.2206179E+01  0.7546771E-02  0.2854193E+00
         22   -1    0    0    0    0  0.00000000000E+00  0.00000000000E+00  0.95820908155E+00  0.95820908155E+00  0.00000000000E+00 0. -1.
         22   -1    0    0    0    0 -0.00000000000E+00 -0.00000000000E+00 -0.62958929437E+01  0.62958929437E+01  0.00000000000E+00 0.  1.
          4    1    1    2  501    0 -0.21292730920E+01 -0.57742671569E+00 -0.42631104851E+01  0.48001392189E+01  0.00000000000E+00 0.  1.
         -4    1    1    2    0  501  0.21292730920E+01  0.57742671569E+00 -0.10745733771E+01  0.24539628064E+01  0.00000000000E+00 0. -1.
<mgrwt>
<rscale>  0 0.22061789E+01</rscale>
<asrwt>0</asrwt>
<pdfrwt beam="1">0</pdfrwt>
<pdfrwt beam="2">0</pdfrwt>
<totfact> 0.29043298E+12</totfact>
</mgrwt>
</event>
<event>
 4    2  0.2130683E+006  0.2144480E+01  0.7546771E-02  0.2889588E+00
         22   -1    0    0    0    0  0.00000000000E+00  0.00000000000E+00  0.36953718973E+00  0.36953718973E+00  0.00000000000E+00 0. -1.
         22   -1    0    0    0    0 -0.00000000000E+00 -0.00000000000E+00 -0.31020344139E+02  0.31020344139E+02  0.00000000000E+00 0.  1.
          4    1    1    2  501    0  0.11563514184E+01  0.18060033156E+01 -0.27470690205E+02  0.27554266765E+02  0.00000000000E+00 0.  1.
         -4    1    1    2    0  501 -0.11563514184E+01 -0.18060033156E+01 -0.31801167436E+01  0.38356145638E+01  0.00000000000E+00 0. -1.
<mgrwt>
<rscale>  0 0.21444805E+01</rscale>
<asrwt>0</asrwt>
<pdfrwt beam="1">0</pdfrwt>
<pdfrwt beam="2">0</pdfrwt>
<totfact> 0.12026412E+12</totfact>
</mgrwt>
</event>
<event>
 4    2  0.2130683E+006  0.2395751E+01  0.7546771E-02  0.2756354E+00
         22   -1    0    0    0    0  0.00000000000E+00  0.00000000000E+00  0.84791762835E+01  0.84791762835E+01  0.00000000000E+00 0.  1.
         22   -1    0    0    0    0 -0.00000000000E+00 -0.00000000000E+00 -0.72736291091E+00  0.72736291091E+00  0.00000000000E+00 0. -1.
          4    1    1    2  501    0  0.92189856268E-01  0.23939764092E+01  0.26635157543E+01  0.35824486306E+01  0.00000000000E+00 0. -1.
         -4    1    1    2    0  501 -0.92189856268E-01 -0.23939764092E+01  0.50882976182E+01  0.56240905637E+01  0.00000000000E+00 0.  1.
<mgrwt>
<rscale>  0 0.23957508E+01</rscale>
<asrwt>0</asrwt>
<pdfrwt beam="1">0</pdfrwt>
<pdfrwt beam="2">0</pdfrwt>
<totfact> 0.27826514E+12</totfact>
</mgrwt>
</event>
<event>
 4    2  0.2130683E+006  0.2170993E+01  0.7546771E-02  0.2874142E+00
         22   -1    0    0    0    0  0.00000000000E+00  0.00000000000E+00  0.68030774069E+02  0.68030774069E+02  0.00000000000E+00 0. -1.
         22   -1    0    0    0    0 -0.00000000000E+00 -0.00000000000E+00 -0.72645395801E-01  0.72645395801E-01  0.00000000000E+00 0.  1.
          4    1    1    2  501    0  0.17894996847E+00 -0.21636052502E+01  0.26650545618E+02  0.26738825563E+02  0.00000000000E+00 0.  1.
         -4    1    1    2    0  501 -0.17894996847E+00  0.21636052502E+01  0.41307583056E+02  0.41364593902E+02  0.00000000000E+00 0. -1.
<mgrwt>
<rscale>  0 0.21709930E+01</rscale>
<asrwt>0</asrwt>
<pdfrwt beam="1">0</pdfrwt>
<pdfrwt beam="2">0</pdfrwt>
<totfact> 0.26249274E+12</totfact>
</mgrwt>
</event>
<event>
 4    2  0.2130683E+006  0.2037987E+01  0.7546771E-02  0.2955546E+00
         22   -1    0    0    0    0  0.00000000000E+00  0.00000000000E+00  0.12408315229E+02  0.12408315229E+02  0.00000000000E+00 0.  1.
         22   -1    0    0    0    0 -0.00000000000E+00 -0.00000000000E+00 -0.33556073336E+00  0.33556073336E+00  0.00000000000E+00 0. -1.
          4    1    1    2  501    0 -0.90901292548E-01  0.20359584749E+01  0.57186378338E+01  0.60709314467E+01  0.00000000000E+00 0.  1.
         -4    1    1    2    0  501  0.90901292548E-01 -0.20359584749E+01  0.63541166618E+01  0.66729445156E+01  0.00000000000E+00 0. -1.
<mgrwt>
<rscale>  0 0.20379867E+01</rscale>
<asrwt>0</asrwt>
<pdfrwt beam="1">0</pdfrwt>
<pdfrwt beam="2">0</pdfrwt>
<totfact> 0.42010458E+12</totfact>
</mgrwt>
</event>
<event>
 4    2  0.2130683E+006  0.2851068E+01  0.7546771E-02  0.2571447E+00
         22   -1    0    0    0    0  0.00000000000E+00  0.00000000000E+00  0.13950265998E+01  0.13950265998E+01  0.00000000000E+00 0.  1.
         22   -1    0    0    0    0 -0.00000000000E+00 -0.00000000000E+00 -0.60911183187E+01  0.60911183187E+01  0.00000000000E+00 0. -1.
          4    1    1    2  501    0 -0.24212040561E+01 -0.15054442827E+01 -0.15683709467E+01  0.32539789483E+01  0.00000000000E+00 0.  1.
         -4    1    1    2    0  501  0.24212040561E+01  0.15054442827E+01 -0.31277207722E+01  0.42321659701E+01  0.00000000000E+00 0. -1.
<mgrwt>
<rscale>  0 0.28510685E+01</rscale>
<asrwt>0</asrwt>
<pdfrwt beam="1">0</pdfrwt>
<pdfrwt beam="2">0</pdfrwt>
<totfact> 0.19652100E+12</totfact>
</mgrwt>
</event>
<event>
 4    2  0.2130683E+006  0.2031762E+01  0.7546771E-02  0.2959610E+00
         22   -1    0    0    0    0  0.00000000000E+00  0.00000000000E+00  0.34353845456E+01  0.34353845456E+01  0.00000000000E+00 0.  1.
         22   -1    0    0    0    0 -0.00000000000E+00 -0.00000000000E+00 -0.15392831951E+01  0.15392831951E+01  0.00000000000E+00 0. -1.
          4    1    1    2  501    0  0.13034730667E+01 -0.15585298293E+01 -0.21690922211E+00  0.20433078268E+01  0.00000000000E+00 0. -1.
         -4    1    1    2    0  501 -0.13034730667E+01  0.15585298293E+01  0.21130105726E+01  0.29313599138E+01  0.00000000000E+00 0.  1.
<mgrwt>
<rscale>  0 0.20317621E+01</rscale>
<asrwt>0</asrwt>
<pdfrwt beam="1">0</pdfrwt>
<pdfrwt beam="2">0</pdfrwt>
<totfact> 0.34514768E+12</totfact>
</mgrwt>
</event>
<event>
 4    2  0.2130683E+006  0.2633926E+01  0.7546771E-02  0.2652277E+00
         22   -1    0    0    0    0  0.00000000000E+00  0.00000000000E+00  0.80561776319E+00  0.80561776319E+00  0.00000000000E+00 0. -1.
         22   -1    0    0    0    0 -0.00000000000E+00 -0.00000000000E+00 -0.13393397238E+02  0.13393397238E+02  0.00000000000E+00 0.  1.
          4    1    1    2  501    0  0.33078965411E+00  0.26130720793E+01 -0.10536015347E+02  0.10860257220E+02  0.00000000000E+00 0.  1.
         -4    1    1    2    0  501 -0.33078965411E+00 -0.26130720793E+01 -0.20517641278E+01  0.33387577815E+01  0.00000000000E+00 0. -1.
<mgrwt>
<rscale>  0 0.26339262E+01</rscale>
<asrwt>0</asrwt>
<pdfrwt beam="1">0</pdfrwt>
<pdfrwt beam="2">0</pdfrwt>
<totfact> 0.14223564E+12</totfact>
</mgrwt>
</event>
<event>
 4    2  0.2130683E+006  0.2035789E+01  0.7546771E-02  0.2956978E+00
         22   -1    0    0    0    0  0.00000000000E+00  0.00000000000E+00  0.17543080277E+02  0.17543080277E+02  0.00000000000E+00 0. -1.
         22   -1    0    0    0    0 -0.00000000000E+00 -0.00000000000E+00 -0.62126207782E+00  0.62126207782E+00  0.00000000000E+00 0.  1.
          4    1    1    2  501    0 -0.16781174857E+01  0.11525451468E+01  0.13111220686E+01  0.24214623041E+01  0.00000000000E+00 0.  1.
         -4    1    1    2    0  501  0.16781174857E+01 -0.11525451468E+01  0.15610696131E+02  0.15742880051E+02  0.00000000000E+00 0. -1.
<mgrwt>
<rscale>  0 0.20357894E+01</rscale>
<asrwt>0</asrwt>
<pdfrwt beam="1">0</pdfrwt>
<pdfrwt beam="2">0</pdfrwt>
<totfact> 0.13699338E+12</totfact>
</mgrwt>
</event>
<event>
 4    2  0.2130683E+006  0.2326156E+01  0.7546771E-02  0.2790515E+00
         22   -1    0    0    0    0  0.00000000000E+00  0.00000000000E+00  0.12393840824E+01  0.12393840824E+01  0.00000000000E+00 0. -1.
         22   -1    0    0    0    0 -0.00000000000E+00 -0.00000000000E+00 -0.12772475329E+02  0.12772475329E+02  0.00000000000E+00 0.  1.
          4    1    1    2  501    0  0.16880080691E+01  0.16005101088E+01 -0.11450338920E+02  0.11684231478E+02  0.00000000000E+00 0.  1.
         -4    1    1    2    0  501 -0.16880080691E+01 -0.16005101088E+01 -0.82752326946E-01  0.23276279336E+01  0.00000000000E+00 0. -1.
<mgrwt>
<rscale>  0 0.23261565E+01</rscale>
<asrwt>0</asrwt>
<pdfrwt beam="1">0</pdfrwt>
<pdfrwt beam="2">0</pdfrwt>
<totfact> 0.92168104E+11</totfact>
</mgrwt>
</event>
<event>
 4    2  0.2130683E+006  0.2631345E+01  0.7546771E-02  0.2653311E+00
         22   -1    0    0    0    0  0.00000000000E+00  0.00000000000E+00  0.37807140957E+02  0.37807140957E+02  0.00000000000E+00 0. -1.
         22   -1    0    0    0    0 -0.00000000000E+00 -0.00000000000E+00 -0.23718765520E+00  0.23718765520E+00  0.00000000000E+00 0.  1.
          4    1    1    2  501    0  0.26310689725E+01 -0.38106983123E-01  0.97045796513E+01  0.10054990914E+02  0.00000000000E+00 0.  1.
         -4    1    1    2    0  501 -0.26310689725E+01  0.38106983123E-01  0.27865373650E+02  0.27989337698E+02  0.00000000000E+00 0. -1.
<mgrwt>
<rscale>  0 0.26313449E+01</rscale>
<asrwt>0</asrwt>
<pdfrwt beam="1">0</pdfrwt>
<pdfrwt beam="2">0</pdfrwt>
<totfact> 0.15333789E+12</totfact>
</mgrwt>
</event>
<event>
 4    2  0.2130683E+006  0.2510204E+01  0.7546771E-02  0.2704048E+00
         22   -1    0    0    0    0  0.00000000000E+00  0.00000000000E+00  0.12858071856E+01  0.12858071856E+01  0.00000000000E+00 0. -1.
         22   -1    0    0    0    0 -0.00000000000E+00 -0.00000000000E+00 -0.13264988892E+02  0.13264988892E+02  0.00000000000E+00 0.  1.
          4    1    1    2  501    0 -0.56829576832E+00 -0.24450286291E+01 -0.11766858307E+02  0.12031628298E+02  0.00000000000E+00 0.  1.
         -4    1    1    2    0  501  0.56829576832E+00  0.24450286291E+01 -0.21232339935E+00  0.25191677799E+01  0.00000000000E+00 0. -1.
<mgrwt>
<rscale>  0 0.25102042E+01</rscale>
<asrwt>0</asrwt>
<pdfrwt beam="1">0</pdfrwt>
<pdfrwt beam="2">0</pdfrwt>
<totfact> 0.84367244E+11</totfact>
</mgrwt>
</event>
<event>
 4    2  0.2130683E+006  0.4531844E+01  0.7546771E-02  0.2185865E+00
         22   -1    0    0    0    0  0.00000000000E+00  0.00000000000E+00  0.28933888140E+02  0.28933888140E+02  0.00000000000E+00 0. -1.
         22   -1    0    0    0    0 -0.00000000000E+00 -0.00000000000E+00 -0.16489344862E+01  0.16489344862E+01  0.00000000000E+00 0.  1.
          4    1    1    2  501    0 -0.38329609148E+01 -0.24178551328E+01  0.21024437172E+01  0.49957864648E+01  0.00000000000E+00 0.  1.
         -4    1    1    2    0  501  0.38329609148E+01  0.24178551328E+01  0.25182509936E+02  0.25587036161E+02  0.00000000000E+00 0. -1.
<mgrwt>
<rscale>  0 0.45318443E+01</rscale>
<asrwt>0</asrwt>
<pdfrwt beam="1">0</pdfrwt>
<pdfrwt beam="2">0</pdfrwt>
<totfact> 0.23976044E+11</totfact>
</mgrwt>
</event>
<event>
 4    2  0.2130683E+006  0.2901036E+01  0.7546771E-02  0.2554410E+00
         22   -1    0    0    0    0  0.00000000000E+00  0.00000000000E+00  0.11006321633E+02  0.11006321633E+02  0.00000000000E+00 0.  1.
         22   -1    0    0    0    0 -0.00000000000E+00 -0.00000000000E+00 -0.78704945846E+00  0.78704945846E+00  0.00000000000E+00 0. -1.
          4    1    1    2  501    0  0.16976975458E+01  0.23524096133E+01  0.41149077744E+01  0.50347267987E+01  0.00000000000E+00 0.  1.
         -4    1    1    2    0  501 -0.16976975458E+01 -0.23524096133E+01  0.61043644000E+01  0.67586442926E+01  0.00000000000E+00 0. -1.
<mgrwt>
<rscale>  0 0.29010357E+01</rscale>
<asrwt>0</asrwt>
<pdfrwt beam="1">0</pdfrwt>
<pdfrwt beam="2">0</pdfrwt>
<totfact> 0.18557930E+12</totfact>
</mgrwt>
</event>
<event>
 4    2  0.2130683E+006  0.2225519E+01  0.7546771E-02  0.2843487E+00
         22   -1    0    0    0    0  0.00000000000E+00  0.00000000000E+00  0.23125771013E+02  0.23125771013E+02  0.00000000000E+00 0. -1.
         22   -1    0    0    0    0 -0.00000000000E+00 -0.00000000000E+00 -0.30238235777E+00  0.30238235777E+00  0.00000000000E+00 0.  1.
          4    1    1    2  501    0 -0.10789217484E+01  0.19464997344E+01  0.50848770084E+01  0.55505772264E+01  0.00000000000E+00 0.  1.
         -4    1    1    2    0  501  0.10789217484E+01 -0.19464997344E+01  0.17738511647E+02  0.17877576145E+02  0.00000000000E+00 0. -1.
<mgrwt>
<rscale>  0 0.22255187E+01</rscale>
<asrwt>0</asrwt>
<pdfrwt beam="1">0</pdfrwt>
<pdfrwt beam="2">0</pdfrwt>
<totfact> 0.21850610E+12</totfact>
</mgrwt>
</event>
<event>
 4    2  0.2130683E+006  0.4580405E+01  0.7546771E-02  0.2178413E+00
         22   -1    0    0    0    0  0.00000000000E+00  0.00000000000E+00  0.94652211663E+00  0.94652211663E+00  0.00000000000E+00 0. -1.
         22   -1    0    0    0    0 -0.00000000000E+00 -0.00000000000E+00 -0.24342097313E+02  0.24342097313E+02  0.00000000000E+00 0.  1.
          4    1    1    2  501    0 -0.45803268492E+01  0.26797140723E-01 -0.15478796375E+02  0.16142281417E+02  0.00000000000E+00 0. -1.
         -4    1    1    2    0  501  0.45803268492E+01 -0.26797140723E-01 -0.79167788213E+01  0.91463380124E+01  0.00000000000E+00 0.  1.
<mgrwt>
<rscale>  0 0.45804052E+01</rscale>
<asrwt>0</asrwt>
<pdfrwt beam="1">0</pdfrwt>
<pdfrwt beam="2">0</pdfrwt>
<totfact> 0.56387855E+11</totfact>
</mgrwt>
</event>
<event>
 4    2  0.2130683E+006  0.2110041E+01  0.7546771E-02  0.2910212E+00
         22   -1    0    0    0    0  0.00000000000E+00  0.00000000000E+00  0.38171403596E+02  0.38171403596E+02  0.00000000000E+00 0.  1.
         22   -1    0    0    0    0 -0.00000000000E+00 -0.00000000000E+00 -0.18952760450E+00  0.18952760450E+00  0.00000000000E+00 0. -1.
          4    1    1    2  501    0 -0.14537886334E+01 -0.15293042220E+01  0.70962556808E+01  0.74033180048E+01  0.00000000000E+00 0. -1.
         -4    1    1    2    0  501  0.14537886334E+01  0.15293042220E+01  0.30885620310E+02  0.30957613195E+02  0.00000000000E+00 0.  1.
<mgrwt>
<rscale>  0 0.21100409E+01</rscale>
<asrwt>0</asrwt>
<pdfrwt beam="1">0</pdfrwt>
<pdfrwt beam="2">0</pdfrwt>
<totfact> 0.19452764E+12</totfact>
</mgrwt>
</event>
<event>
 4    2  0.2130683E+006  0.2572795E+01  0.7546771E-02  0.2677282E+00
         22   -1    0    0    0    0  0.00000000000E+00  0.00000000000E+00  0.25354445524E+01  0.25354445524E+01  0.00000000000E+00 0.  1.
         22   -1    0    0    0    0 -0.00000000000E+00 -0.00000000000E+00 -0.60512132417E+01  0.60512132417E+01  0.00000000000E+00 0. -1.
          4    1    1    2  501    0  0.26657053244E+00  0.25589476321E+01 -0.49951985491E+01  0.56188327415E+01  0.00000000000E+00 0. -1.
         -4    1    1    2    0  501 -0.26657053244E+00 -0.25589476321E+01  0.14794298597E+01  0.29678250525E+01  0.00000000000E+00 0.  1.
<mgrwt>
<rscale>  0 0.25727948E+01</rscale>
<asrwt>0</asrwt>
<pdfrwt beam="1">0</pdfrwt>
<pdfrwt beam="2">0</pdfrwt>
<totfact> 0.99274894E+11</totfact>
</mgrwt>
</event>
<event>
 4    2  0.2130683E+006  0.4076744E+01  0.7546771E-02  0.2262860E+00
         22   -1    0    0    0    0  0.00000000000E+00  0.00000000000E+00  0.13935854083E+02  0.13935854083E+02  0.00000000000E+00 0. -1.
         22   -1    0    0    0    0 -0.00000000000E+00 -0.00000000000E+00 -0.19067802035E+01  0.19067802035E+01  0.00000000000E+00 0.  1.
          4    1    1    2  501    0 -0.16036042913E+01  0.37481055734E+01  0.11666526906E+01  0.42403915637E+01  0.00000000000E+00 0.  1.
         -4    1    1    2    0  501  0.16036042913E+01 -0.37481055734E+01  0.10862421189E+02  0.11602242723E+02  0.00000000000E+00 0. -1.
<mgrwt>
<rscale>  0 0.40767441E+01</rscale>
<asrwt>0</asrwt>
<pdfrwt beam="1">0</pdfrwt>
<pdfrwt beam="2">0</pdfrwt>
<totfact> 0.50448932E+11</totfact>
</mgrwt>
</event>
<event>
 4    2  0.2130683E+006  0.2689886E+01  0.7546771E-02  0.2630307E+00
         22   -1    0    0    0    0  0.00000000000E+00  0.00000000000E+00  0.84046624362E+01  0.84046624362E+01  0.00000000000E+00 0.  1.
         22   -1    0    0    0    0 -0.00000000000E+00 -0.00000000000E+00 -0.11215130470E+01  0.11215130470E+01  0.00000000000E+00 0. -1.
          4    1    1    2  501    0  0.68860207639E+00 -0.26002529212E+01  0.13454630496E+01  0.30076168126E+01  0.00000000000E+00 0. -1.
         -4    1    1    2    0  501 -0.68860207639E+00  0.26002529212E+01  0.59376863397E+01  0.65185586706E+01  0.00000000000E+00 0.  1.
<mgrwt>
<rscale>  0 0.26898863E+01</rscale>
<asrwt>0</asrwt>
<pdfrwt beam="1">0</pdfrwt>
<pdfrwt beam="2">0</pdfrwt>
<totfact> 0.17167440E+12</totfact>
</mgrwt>
</event>
<event>
 4    2  0.2130683E+006  0.2918633E+01  0.7546771E-02  0.2548535E+00
         22   -1    0    0    0    0  0.00000000000E+00  0.00000000000E+00  0.84168626012E+01  0.84168626012E+01  0.00000000000E+00 0. -1.
         22   -1    0    0    0    0 -0.00000000000E+00 -0.00000000000E+00 -0.12342219007E+01  0.12342219007E+01  0.00000000000E+00 0.  1.
          4    1    1    2  501    0 -0.14944341019E+00 -0.29148040427E+01  0.56386083947E+01  0.63491984194E+01  0.00000000000E+00 0. -1.
         -4    1    1    2    0  501  0.14944341019E+00  0.29148040427E+01  0.15440323057E+01  0.33018860825E+01  0.00000000000E+00 0.  1.
<mgrwt>
<rscale>  0 0.29186325E+01</rscale>
<asrwt>0</asrwt>
<pdfrwt beam="1">0</pdfrwt>
<pdfrwt beam="2">0</pdfrwt>
<totfact> 0.15357426E+12</totfact>
</mgrwt>
</event>
<event>
 4    2  0.2130683E+006  0.2021027E+01  0.7546771E-02  0.2966675E+00
         22   -1    0    0    0    0  0.00000000000E+00  0.00000000000E+00  0.37991461065E+00  0.37991461065E+00  0.00000000000E+00 0.  1.
         22   -1    0    0    0    0 -0.00000000000E+00 -0.00000000000E+00 -0.10841333963E+02  0.10841333963E+02  0.00000000000E+00 0. -1.
          4    1    1    2  501    0  0.12402080862E+01 -0.15957555379E+01 -0.57421866348E+01  0.60874673866E+01  0.00000000000E+00 0. -1.
         -4    1    1    2    0  501 -0.12402080862E+01  0.15957555379E+01 -0.47192327172E+01  0.51337811867E+01  0.00000000000E+00 0.  1.
<mgrwt>
<rscale>  0 0.20210274E+01</rscale>
<asrwt>0</asrwt>
<pdfrwt beam="1">0</pdfrwt>
<pdfrwt beam="2">0</pdfrwt>
<totfact> 0.43068308E+12</totfact>
</mgrwt>
</event>
<event>
 4    2  0.2130683E+006  0.6212104E+01  0.7546771E-02  0.2001173E+00
         22   -1    0    0    0    0  0.00000000000E+00  0.00000000000E+00  0.42138595879E+00  0.42138595879E+00  0.00000000000E+00 0.  1.
         22   -1    0    0    0    0 -0.00000000000E+00 -0.00000000000E+00 -0.93670146302E+02  0.93670146302E+02  0.00000000000E+00 0. -1.
          4    1    1    2  501    0 -0.62044823124E+01  0.30763629575E+00 -0.53653138401E+02  0.54011568216E+02  0.00000000000E+00 0.  1.
         -4    1    1    2    0  501  0.62044823124E+01 -0.30763629575E+00 -0.39595621942E+02  0.40079964045E+02  0.00000000000E+00 0. -1.
<mgrwt>
<rscale>  0 0.62121044E+01</rscale>
<asrwt>0</asrwt>
<pdfrwt beam="1">0</pdfrwt>
<pdfrwt beam="2">0</pdfrwt>
<totfact> 0.23856207E+11</totfact>
</mgrwt>
</event>
<event>
 4    2  0.2130683E+006  0.2212505E+01  0.7546771E-02  0.2850671E+00
         22   -1    0    0    0    0  0.00000000000E+00  0.00000000000E+00  0.52719994197E+00  0.52719994197E+00  0.00000000000E+00 0.  1.
         22   -1    0    0    0    0 -0.00000000000E+00 -0.00000000000E+00 -0.14677514202E+02  0.14677514202E+02  0.00000000000E+00 0. -1.
          4    1    1    2  501    0  0.21518042255E+01 -0.51470158046E+00 -0.11683108694E+02  0.11890761452E+02  0.00000000000E+00 0. -1.
         -4    1    1    2    0  501 -0.21518042255E+01  0.51470158046E+00 -0.24672055655E+01  0.33139526919E+01  0.00000000000E+00 0.  1.
<mgrwt>
<rscale>  0 0.22125052E+01</rscale>
<asrwt>0</asrwt>
<pdfrwt beam="1">0</pdfrwt>
<pdfrwt beam="2">0</pdfrwt>
<totfact> 0.20558942E+12</totfact>
</mgrwt>
</event>
<event>
 4    2  0.2130683E+006  0.3486022E+01  0.7546771E-02  0.2387821E+00
         22   -1    0    0    0    0  0.00000000000E+00  0.00000000000E+00  0.35829510238E+01  0.35829510238E+01  0.00000000000E+00 0. -1.
         22   -1    0    0    0    0 -0.00000000000E+00 -0.00000000000E+00 -0.36219747768E+01  0.36219747768E+01  0.00000000000E+00 0.  1.
          4    1    1    2  501    0  0.35568301567E+00 -0.34678293105E+01 -0.92782454491E+00  0.36073825581E+01  0.00000000000E+00 0. -1.
         -4    1    1    2    0  501 -0.35568301567E+00  0.34678293105E+01  0.88880079186E+00  0.35975432425E+01  0.00000000000E+00 0.  1.
<mgrwt>
<rscale>  0 0.34860222E+01</rscale>
<asrwt>0</asrwt>
<pdfrwt beam="1">0</pdfrwt>
<pdfrwt beam="2">0</pdfrwt>
<totfact> 0.12156934E+12</totfact>
</mgrwt>
</event>
<event>
 4    2  0.2130683E+006  0.3621525E+01  0.7546771E-02  0.2356060E+00
         22   -1    0    0    0    0  0.00000000000E+00  0.00000000000E+00  0.96526971239E+01  0.96526971239E+01  0.00000000000E+00 0. -1.
         22   -1    0    0    0    0 -0.00000000000E+00 -0.00000000000E+00 -0.14196333248E+01  0.14196333248E+01  0.00000000000E+00 0.  1.
          4    1    1    2  501    0  0.36010273573E+01  0.38476228932E+00  0.29698840969E+01  0.46835511737E+01  0.00000000000E+00 0.  1.
         -4    1    1    2    0  501 -0.36010273573E+01 -0.38476228932E+00  0.52631797022E+01  0.63887792750E+01  0.00000000000E+00 0. -1.
<mgrwt>
<rscale>  0 0.36215245E+01</rscale>
<asrwt>0</asrwt>
<pdfrwt beam="1">0</pdfrwt>
<pdfrwt beam="2">0</pdfrwt>
<totfact> 0.11085979E+12</totfact>
</mgrwt>
</event>
<event>
 4    2  0.2130683E+006  0.2013557E+01  0.7546771E-02  0.2971635E+00
         22   -1    0    0    0    0  0.00000000000E+00  0.00000000000E+00  0.82662184301E+00  0.82662184301E+00  0.00000000000E+00 0. -1.
         22   -1    0    0    0    0 -0.00000000000E+00 -0.00000000000E+00 -0.52201310573E+01  0.52201310573E+01  0.00000000000E+00 0.  1.
          4    1    1    2  501    0  0.35911359780E+00  0.19812748497E+01 -0.29398365993E+01  0.35632922750E+01  0.00000000000E+00 0.  1.
         -4    1    1    2    0  501 -0.35911359780E+00 -0.19812748497E+01 -0.14536726150E+01  0.24834606254E+01  0.00000000000E+00 0. -1.
<mgrwt>
<rscale>  0 0.20135572E+01</rscale>
<asrwt>0</asrwt>
<pdfrwt beam="1">0</pdfrwt>
<pdfrwt beam="2">0</pdfrwt>
<totfact> 0.42941153E+12</totfact>
</mgrwt>
</event>
<event>
 4    2  0.2130683E+006  0.3542188E+01  0.7546771E-02  0.2374400E+00
         22   -1    0    0    0    0  0.00000000000E+00  0.00000000000E+00  0.26568233017E+02  0.26568233017E+02  0.00000000000E+00 0. -1.
         22   -1    0    0    0    0 -0.00000000000E+00 -0.00000000000E+00 -0.35852078217E+01  0.35852078217E+01  0.00000000000E+00 0.  1.
          4    1    1    2  501    0  0.18251557591E+00  0.35374825011E+01 -0.25571727371E+01  0.43687786381E+01  0.00000000000E+00 0.  1.
         -4    1    1    2    0  501 -0.18251557591E+00 -0.35374825011E+01  0.25540197932E+02  0.25784662201E+02  0.00000000000E+00 0. -1.
<mgrwt>
<rscale>  0 0.35421878E+01</rscale>
<asrwt>0</asrwt>
<pdfrwt beam="1">0</pdfrwt>
<pdfrwt beam="2">0</pdfrwt>
<totfact> 0.10829097E+11</totfact>
</mgrwt>
</event>
<event>
 4    2  0.2130683E+006  0.3886826E+01  0.7546771E-02  0.2299464E+00
         22   -1    0    0    0    0  0.00000000000E+00  0.00000000000E+00  0.30075263747E+01  0.30075263747E+01  0.00000000000E+00 0.  1.
         22   -1    0    0    0    0 -0.00000000000E+00 -0.00000000000E+00 -0.51143454539E+01  0.51143454539E+01  0.00000000000E+00 0. -1.
          4    1    1    2  501    0 -0.36828084319E+01  0.12427130057E+01 -0.15955265157E+01  0.42015614268E+01  0.00000000000E+00 0.  1.
         -4    1    1    2    0  501  0.36828084319E+01 -0.12427130057E+01 -0.51129256345E+00  0.39203104018E+01  0.00000000000E+00 0. -1.
<mgrwt>
<rscale>  0 0.38868256E+01</rscale>
<asrwt>0</asrwt>
<pdfrwt beam="1">0</pdfrwt>
<pdfrwt beam="2">0</pdfrwt>
<totfact> 0.99347549E+11</totfact>
</mgrwt>
</event>
<event>
 4    2  0.2130683E+006  0.3166994E+01  0.7546771E-02  0.2471905E+00
         22   -1    0    0    0    0  0.00000000000E+00  0.00000000000E+00  0.41192944075E+00  0.41192944075E+00  0.00000000000E+00 0.  1.
         22   -1    0    0    0    0 -0.00000000000E+00 -0.00000000000E+00 -0.25868007284E+02  0.25868007284E+02  0.00000000000E+00 0. -1.
          4    1    1    2  501    0  0.22345595320E+01  0.22442354275E+01 -0.15912745613E+02  0.16224836575E+02  0.00000000000E+00 0. -1.
         -4    1    1    2    0  501 -0.22345595320E+01 -0.22442354275E+01 -0.95433322309E+01  0.10055100150E+02  0.00000000000E+00 0.  1.
<mgrwt>
<rscale>  0 0.31669937E+01</rscale>
<asrwt>0</asrwt>
<pdfrwt beam="1">0</pdfrwt>
<pdfrwt beam="2">0</pdfrwt>
<totfact> 0.13406122E+12</totfact>
</mgrwt>
</event>
<event>
 4    2  0.2130683E+006  0.3398125E+01  0.7546771E-02  0.2409601E+00
         22   -1    0    0    0    0  0.00000000000E+00  0.00000000000E+00  0.80549800705E+01  0.80549800705E+01  0.00000000000E+00 0. -1.
         22   -1    0    0    0    0 -0.00000000000E+00 -0.00000000000E+00 -0.23311545708E+01  0.23311545708E+01  0.00000000000E+00 0.  1.
          4    1    1    2  501    0 -0.19368554790E+00 -0.33926002835E+01 -0.36049075212E+00  0.34171924672E+01  0.00000000000E+00 0. -1.
         -4    1    1    2    0  501  0.19368554790E+00  0.33926002835E+01  0.60843162518E+01  0.69689421742E+01  0.00000000000E+00 0.  1.
<mgrwt>
<rscale>  0 0.33981246E+01</rscale>
<asrwt>0</asrwt>
<pdfrwt beam="1">0</pdfrwt>
<pdfrwt beam="2">0</pdfrwt>
<totfact> 0.77745871E+11</totfact>
</mgrwt>
</event>
<event>
 4    2  0.2130683E+006  0.3784650E+01  0.7546771E-02  0.2320451E+00
         22   -1    0    0    0    0  0.00000000000E+00  0.00000000000E+00  0.50856589256E+01  0.50856589256E+01  0.00000000000E+00 0.  1.
         22   -1    0    0    0    0 -0.00000000000E+00 -0.00000000000E+00 -0.14230090146E+02  0.14230090146E+02  0.00000000000E+00 0. -1.
          4    1    1    2  501    0  0.16508807603E+01  0.34056085929E+01 -0.13221686633E+02  0.13752693358E+02  0.00000000000E+00 0. -1.
         -4    1    1    2    0  501 -0.16508807603E+01 -0.34056085929E+01  0.40772554128E+01  0.55630557137E+01  0.00000000000E+00 0.  1.
<mgrwt>
<rscale>  0 0.37846502E+01</rscale>
<asrwt>0</asrwt>
<pdfrwt beam="1">0</pdfrwt>
<pdfrwt beam="2">0</pdfrwt>
<totfact> 0.15609651E+11</totfact>
</mgrwt>
</event>
<event>
 4    2  0.2130683E+006  0.2838431E+01  0.7546771E-02  0.2575842E+00
         22   -1    0    0    0    0  0.00000000000E+00  0.00000000000E+00  0.35334488165E+02  0.35334488165E+02  0.00000000000E+00 0. -1.
         22   -1    0    0    0    0 -0.00000000000E+00 -0.00000000000E+00 -0.31447006597E+00  0.31447006597E+00  0.00000000000E+00 0.  1.
          4    1    1    2  501    0  0.27760270844E+01 -0.59191371781E+00  0.26856097463E+02  0.27005678276E+02  0.00000000000E+00 0. -1.
         -4    1    1    2    0  501 -0.27760270844E+01  0.59191371781E+00  0.81639206359E+01  0.86432799545E+01  0.00000000000E+00 0.  1.
<mgrwt>
<rscale>  0 0.28384306E+01</rscale>
<asrwt>0</asrwt>
<pdfrwt beam="1">0</pdfrwt>
<pdfrwt beam="2">0</pdfrwt>
<totfact> 0.12200527E+12</totfact>
</mgrwt>
</event>
<event>
 4    2  0.2130683E+006  0.3499995E+01  0.7546771E-02  0.2384447E+00
         22   -1    0    0    0    0  0.00000000000E+00  0.00000000000E+00  0.31676320240E+01  0.31676320240E+01  0.00000000000E+00 0. -1.
         22   -1    0    0    0    0 -0.00000000000E+00 -0.00000000000E+00 -0.39734357106E+01  0.39734357106E+01  0.00000000000E+00 0.  1.
          4    1    1    2  501    0  0.12055501742E+01  0.32858203703E+01 -0.98664349253E+00  0.36364037331E+01  0.00000000000E+00 0.  1.
         -4    1    1    2    0  501 -0.12055501742E+01 -0.32858203703E+01  0.18083980592E+00  0.35046640016E+01  0.00000000000E+00 0. -1.
<mgrwt>
<rscale>  0 0.34999952E+01</rscale>
<asrwt>0</asrwt>
<pdfrwt beam="1">0</pdfrwt>
<pdfrwt beam="2">0</pdfrwt>
<totfact> 0.12596362E+12</totfact>
</mgrwt>
</event>
<event>
 4    2  0.2130683E+006  0.2131589E+01  0.7546771E-02  0.2897232E+00
         22   -1    0    0    0    0  0.00000000000E+00  0.00000000000E+00  0.51564240407E+01  0.51564240407E+01  0.00000000000E+00 0. -1.
         22   -1    0    0    0    0 -0.00000000000E+00 -0.00000000000E+00 -0.10456426424E+01  0.10456426424E+01  0.00000000000E+00 0.  1.
          4    1    1    2  501    0  0.16595784051E+01  0.13377114298E+01  0.82550382651E+00  0.22858540897E+01  0.00000000000E+00 0.  1.
         -4    1    1    2    0  501 -0.16595784051E+01 -0.13377114298E+01  0.32852775719E+01  0.39162125933E+01  0.00000000000E+00 0. -1.
<mgrwt>
<rscale>  0 0.21315892E+01</rscale>
<asrwt>0</asrwt>
<pdfrwt beam="1">0</pdfrwt>
<pdfrwt beam="2">0</pdfrwt>
<totfact> 0.33326509E+12</totfact>
</mgrwt>
</event>
<event>
 4    2  0.2130683E+006  0.2046792E+01  0.7546771E-02  0.2949840E+00
         22   -1    0    0    0    0  0.00000000000E+00  0.00000000000E+00  0.30122856667E+02  0.30122856667E+02  0.00000000000E+00 0.  1.
         22   -1    0    0    0    0 -0.00000000000E+00 -0.00000000000E+00 -0.14297027686E+00  0.14297027686E+00  0.00000000000E+00 0. -1.
          4    1    1    2  501    0 -0.16540841319E+01  0.12055543791E+01  0.12492285273E+02  0.12658852515E+02  0.00000000000E+00 0. -1.
         -4    1    1    2    0  501  0.16540841319E+01 -0.12055543791E+01  0.17487601118E+02  0.17606974429E+02  0.00000000000E+00 0.  1.
<mgrwt>
<rscale>  0 0.20467916E+01</rscale>
<asrwt>0</asrwt>
<pdfrwt beam="1">0</pdfrwt>
<pdfrwt beam="2">0</pdfrwt>
<totfact> 0.36081863E+12</totfact>
</mgrwt>
</event>
<event>
 4    2  0.2130683E+006  0.2031291E+01  0.7546771E-02  0.2959918E+00
         22   -1    0    0    0    0  0.00000000000E+00  0.00000000000E+00  0.91316846133E+01  0.91316846133E+01  0.00000000000E+00 0.  1.
         22   -1    0    0    0    0 -0.00000000000E+00 -0.00000000000E+00 -0.11735909435E+01  0.11735909435E+01  0.00000000000E+00 0. -1.
          4    1    1    2  501    0 -0.14332217139E+01  0.14394507077E+01 -0.61705219861E-01  0.20322279290E+01  0.00000000000E+00 0. -1.
         -4    1    1    2    0  501  0.14332217139E+01 -0.14394507077E+01  0.80197988896E+01  0.82730476278E+01  0.00000000000E+00 0.  1.
<mgrwt>
<rscale>  0 0.20312909E+01</rscale>
<asrwt>0</asrwt>
<pdfrwt beam="1">0</pdfrwt>
<pdfrwt beam="2">0</pdfrwt>
<totfact> 0.14745913E+12</totfact>
</mgrwt>
</event>
<event>
 4    2  0.2130683E+006  0.3884733E+01  0.7546771E-02  0.2299885E+00
         22   -1    0    0    0    0  0.00000000000E+00  0.00000000000E+00  0.38779586542E+01  0.38779586542E+01  0.00000000000E+00 0.  1.
         22   -1    0    0    0    0 -0.00000000000E+00 -0.00000000000E+00 -0.72912424728E+01  0.72912424728E+01  0.00000000000E+00 0. -1.
          4    1    1    2  501    0 -0.17690180438E+01  0.34585725051E+01 -0.55200489269E+01  0.67499695383E+01  0.00000000000E+00 0. -1.
         -4    1    1    2    0  501  0.17690180438E+01 -0.34585725051E+01  0.21067651083E+01  0.44192315886E+01  0.00000000000E+00 0.  1.
<mgrwt>
<rscale>  0 0.38847328E+01</rscale>
<asrwt>0</asrwt>
<pdfrwt beam="1">0</pdfrwt>
<pdfrwt beam="2">0</pdfrwt>
<totfact> 0.48343345E+11</totfact>
</mgrwt>
</event>
<event>
 4    2  0.2130683E+006  0.3493821E+01  0.7546771E-02  0.2385935E+00
         22   -1    0    0    0    0  0.00000000000E+00  0.00000000000E+00  0.30041654316E+01  0.30041654316E+01  0.00000000000E+00 0.  1.
         22   -1    0    0    0    0 -0.00000000000E+00 -0.00000000000E+00 -0.41466555784E+01  0.41466555784E+01  0.00000000000E+00 0. -1.
          4    1    1    2  501    0 -0.95781439876E+00  0.33599670094E+01 -0.64280285007E-01  0.34944124945E+01  0.00000000000E+00 0.  1.
         -4    1    1    2    0  501  0.95781439876E+00 -0.33599670094E+01 -0.10782098618E+01  0.36564085155E+01  0.00000000000E+00 0. -1.
<mgrwt>
<rscale>  0 0.34938212E+01</rscale>
<asrwt>0</asrwt>
<pdfrwt beam="1">0</pdfrwt>
<pdfrwt beam="2">0</pdfrwt>
<totfact> 0.12744676E+12</totfact>
</mgrwt>
</event>
<event>
 4    2  0.2130683E+006  0.2014220E+01  0.7546771E-02  0.2971193E+00
         22   -1    0    0    0    0  0.00000000000E+00  0.00000000000E+00  0.30851190447E+01  0.30851190447E+01  0.00000000000E+00 0.  1.
         22   -1    0    0    0    0 -0.00000000000E+00 -0.00000000000E+00 -0.15121562056E+01  0.15121562056E+01  0.00000000000E+00 0. -1.
          4    1    1    2  501    0 -0.19011570944E+01  0.66534467766E+00  0.16163775636E+01  0.25825875137E+01  0.00000000000E+00 0.  1.
         -4    1    1    2    0  501  0.19011570944E+01 -0.66534467766E+00 -0.43414724516E-01  0.20146877366E+01  0.00000000000E+00 0. -1.
<mgrwt>
<rscale>  0 0.20142199E+01</rscale>
<asrwt>0</asrwt>
<pdfrwt beam="1">0</pdfrwt>
<pdfrwt beam="2">0</pdfrwt>
<totfact> 0.39953877E+12</totfact>
</mgrwt>
</event>
<event>
 4    2  0.2130683E+006  0.2139285E+01  0.7546771E-02  0.2892658E+00
         22   -1    0    0    0    0  0.00000000000E+00  0.00000000000E+00  0.60923503148E+01  0.60923503148E+01  0.00000000000E+00 0. -1.
         22   -1    0    0    0    0 -0.00000000000E+00 -0.00000000000E+00 -0.14373151217E+01  0.14373151217E+01  0.00000000000E+00 0.  1.
          4    1    1    2  501    0 -0.36950832550E+00  0.21071313030E+01 -0.27365991953E+00  0.21567170612E+01  0.00000000000E+00 0.  1.
         -4    1    1    2    0  501  0.36950832550E+00 -0.21071313030E+01  0.49286951126E+01  0.53729483753E+01  0.00000000000E+00 0. -1.
<mgrwt>
<rscale>  0 0.21392846E+01</rscale>
<asrwt>0</asrwt>
<pdfrwt beam="1">0</pdfrwt>
<pdfrwt beam="2">0</pdfrwt>
<totfact> 0.18983104E+12</totfact>
</mgrwt>
</event>
<event>
 4    2  0.2130683E+006  0.2048643E+01  0.7546771E-02  0.2948646E+00
         22   -1    0    0    0    0  0.00000000000E+00  0.00000000000E+00  0.17602886474E+01  0.17602886474E+01  0.00000000000E+00 0.  1.
         22   -1    0    0    0    0 -0.00000000000E+00 -0.00000000000E+00 -0.48990743398E+01  0.48990743398E+01  0.00000000000E+00 0. -1.
          4    1    1    2  501    0 -0.10614656880E+00  0.20458913783E+01 -0.39550111380E+01  0.44541050423E+01  0.00000000000E+00 0. -1.
         -4    1    1    2    0  501  0.10614656880E+00 -0.20458913783E+01  0.81622544557E+00  0.22052579450E+01  0.00000000000E+00 0.  1.
<mgrwt>
<rscale>  0 0.20486431E+01</rscale>
<asrwt>0</asrwt>
<pdfrwt beam="1">0</pdfrwt>
<pdfrwt beam="2">0</pdfrwt>
<totfact> 0.19468211E+12</totfact>
</mgrwt>
</event>
<event>
 4    2  0.2130683E+006  0.2136620E+01  0.7546771E-02  0.2894239E+00
         22   -1    0    0    0    0  0.00000000000E+00  0.00000000000E+00  0.14272651980E+01  0.14272651980E+01  0.00000000000E+00 0.  1.
         22   -1    0    0    0    0 -0.00000000000E+00 -0.00000000000E+00 -0.35219085309E+01  0.35219085309E+01  0.00000000000E+00 0. -1.
          4    1    1    2  501    0  0.21287599222E+01 -0.18310313529E+00 -0.29747648301E+00  0.21572292003E+01  0.00000000000E+00 0.  1.
         -4    1    1    2    0  501 -0.21287599222E+01  0.18310313529E+00 -0.17971668499E+01  0.27919445287E+01  0.00000000000E+00 0. -1.
<mgrwt>
<rscale>  0 0.21366201E+01</rscale>
<asrwt>0</asrwt>
<pdfrwt beam="1">0</pdfrwt>
<pdfrwt beam="2">0</pdfrwt>
<totfact> 0.36567905E+12</totfact>
</mgrwt>
</event>
<event>
 4    2  0.2130683E+006  0.2119042E+01  0.7546771E-02  0.2904759E+00
         22   -1    0    0    0    0  0.00000000000E+00  0.00000000000E+00  0.76265398796E+00  0.76265398796E+00  0.00000000000E+00 0.  1.
         22   -1    0    0    0    0 -0.00000000000E+00 -0.00000000000E+00 -0.11232167076E+02  0.11232167076E+02  0.00000000000E+00 0. -1.
          4    1    1    2  501    0 -0.14583335552E+01 -0.15374005247E+01 -0.93717139282E+01  0.96082963674E+01  0.00000000000E+00 0. -1.
         -4    1    1    2    0  501  0.14583335552E+01  0.15374005247E+01 -0.10977991596E+01  0.23865246964E+01  0.00000000000E+00 0.  1.
<mgrwt>
<rscale>  0 0.21190416E+01</rscale>
<asrwt>0</asrwt>
<pdfrwt beam="1">0</pdfrwt>
<pdfrwt beam="2">0</pdfrwt>
<totfact> 0.18763682E+12</totfact>
</mgrwt>
</event>
<event>
 4    2  0.2130683E+006  0.2021732E+01  0.7546771E-02  0.2966208E+00
         22   -1    0    0    0    0  0.00000000000E+00  0.00000000000E+00  0.56444553514E+00  0.56444553514E+00  0.00000000000E+00 0.  1.
         22   -1    0    0    0    0 -0.00000000000E+00 -0.00000000000E+00 -0.74891278327E+01  0.74891278327E+01  0.00000000000E+00 0. -1.
          4    1    1    2  501    0 -0.56334938644E+00  0.19416589012E+01 -0.41946430218E+01  0.46564398310E+01  0.00000000000E+00 0.  1.
         -4    1    1    2    0  501  0.56334938644E+00 -0.19416589012E+01 -0.27300392758E+01  0.33971335369E+01  0.00000000000E+00 0. -1.
<mgrwt>
<rscale>  0 0.20217324E+01</rscale>
<asrwt>0</asrwt>
<pdfrwt beam="1">0</pdfrwt>
<pdfrwt beam="2">0</pdfrwt>
<totfact> 0.43056195E+12</totfact>
</mgrwt>
</event>
<event>
 4    2  0.2130683E+006  0.2918955E+01  0.7546771E-02  0.2548428E+00
         22   -1    0    0    0    0  0.00000000000E+00  0.00000000000E+00  0.60869249012E+01  0.60869249012E+01  0.00000000000E+00 0.  1.
         22   -1    0    0    0    0 -0.00000000000E+00 -0.00000000000E+00 -0.22606152866E+01  0.22606152866E+01  0.00000000000E+00 0. -1.
          4    1    1    2  501    0  0.10960964852E+01  0.27053412609E+01 -0.66244023924E+00  0.29931798999E+01  0.00000000000E+00 0. -1.
         -4    1    1    2    0  501 -0.10960964852E+01 -0.27053412609E+01  0.44887498538E+01  0.53543602879E+01  0.00000000000E+00 0.  1.
<mgrwt>
<rscale>  0 0.29189551E+01</rscale>
<asrwt>0</asrwt>
<pdfrwt beam="1">0</pdfrwt>
<pdfrwt beam="2">0</pdfrwt>
<totfact> 0.11264306E+12</totfact>
</mgrwt>
</event>
<event>
 4    2  0.2130683E+006  0.2964303E+01  0.7546771E-02  0.2533582E+00
         22   -1    0    0    0    0  0.00000000000E+00  0.00000000000E+00  0.45287895618E+01  0.45287895618E+01  0.00000000000E+00 0. -1.
         22   -1    0    0    0    0 -0.00000000000E+00 -0.00000000000E+00 -0.27628093860E+01  0.27628093860E+01  0.00000000000E+00 0.  1.
          4    1    1    2  501    0  0.28843977897E+01  0.68362523975E+00 -0.11062835528E+01  0.31640096992E+01  0.00000000000E+00 0.  1.
         -4    1    1    2    0  501 -0.28843977897E+01 -0.68362523975E+00  0.28722637286E+01  0.41275892485E+01  0.00000000000E+00 0. -1.
<mgrwt>
<rscale>  0 0.29643033E+01</rscale>
<asrwt>0</asrwt>
<pdfrwt beam="1">0</pdfrwt>
<pdfrwt beam="2">0</pdfrwt>
<totfact> 0.12665647E+12</totfact>
</mgrwt>
</event>
<event>
 4    2  0.2130683E+006  0.2035192E+01  0.7546771E-02  0.2957368E+00
         22   -1    0    0    0    0  0.00000000000E+00  0.00000000000E+00  0.54530316258E+01  0.54530316258E+01  0.00000000000E+00 0.  1.
         22   -1    0    0    0    0 -0.00000000000E+00 -0.00000000000E+00 -0.86216068320E+00  0.86216068320E+00  0.00000000000E+00 0. -1.
          4    1    1    2  501    0  0.19752301390E+01  0.49037909653E+00  0.12062586831E+01  0.23658118629E+01  0.00000000000E+00 0. -1.
         -4    1    1    2    0  501 -0.19752301390E+01 -0.49037909653E+00  0.33846122595E+01  0.39493804461E+01  0.00000000000E+00 0.  1.
<mgrwt>
<rscale>  0 0.20351918E+01</rscale>
<asrwt>0</asrwt>
<pdfrwt beam="1">0</pdfrwt>
<pdfrwt beam="2">0</pdfrwt>
<totfact> 0.38866405E+12</totfact>
</mgrwt>
</event>
<event>
 4    2  0.2130683E+006  0.2519360E+01  0.7546771E-02  0.2700056E+00
         22   -1    0    0    0    0  0.00000000000E+00  0.00000000000E+00  0.53001871976E+00  0.53001871976E+00  0.00000000000E+00 0. -1.
         22   -1    0    0    0    0 -0.00000000000E+00 -0.00000000000E+00 -0.13251973439E+02  0.13251973439E+02  0.00000000000E+00 0.  1.
          4    1    1    2  501    0  0.12605726935E+01  0.21813143139E+01 -0.84997666666E+01  0.88652811032E+01  0.00000000000E+00 0.  1.
         -4    1    1    2    0  501 -0.12605726935E+01 -0.21813143139E+01 -0.42221880523E+01  0.49167110552E+01  0.00000000000E+00 0. -1.
<mgrwt>
<rscale>  0 0.25193602E+01</rscale>
<asrwt>0</asrwt>
<pdfrwt beam="1">0</pdfrwt>
<pdfrwt beam="2">0</pdfrwt>
<totfact> 0.23165267E+12</totfact>
</mgrwt>
</event>
<event>
 4    2  0.2130683E+006  0.2108040E+01  0.7546771E-02  0.2911430E+00
         22   -1    0    0    0    0  0.00000000000E+00  0.00000000000E+00  0.14440728775E+00  0.14440728775E+00  0.00000000000E+00 0. -1.
         22   -1    0    0    0    0 -0.00000000000E+00 -0.00000000000E+00 -0.31173010997E+02  0.31173010997E+02  0.00000000000E+00 0.  1.
          4    1    1    2  501    0  0.12890028892E+01  0.16680240867E+01 -0.13740316020E+02  0.13901083308E+02  0.00000000000E+00 0. -1.
         -4    1    1    2    0  501 -0.12890028892E+01 -0.16680240867E+01 -0.17288287689E+02  0.17416334977E+02  0.00000000000E+00 0.  1.
<mgrwt>
<rscale>  0 0.21080400E+01</rscale>
<asrwt>0</asrwt>
<pdfrwt beam="1">0</pdfrwt>
<pdfrwt beam="2">0</pdfrwt>
<totfact> 0.34157061E+12</totfact>
</mgrwt>
</event>
<event>
 4    2  0.2130683E+006  0.2233183E+01  0.7546771E-02  0.2839293E+00
         22   -1    0    0    0    0  0.00000000000E+00  0.00000000000E+00  0.10525520413E+02  0.10525520413E+02  0.00000000000E+00 0. -1.
         22   -1    0    0    0    0 -0.00000000000E+00 -0.00000000000E+00 -0.15177424042E+01  0.15177424042E+01  0.00000000000E+00 0.  1.
          4    1    1    2  501    0 -0.37887313629E+00 -0.22008092431E+01 -0.49014090153E+00  0.22863386191E+01  0.00000000000E+00 0.  1.
         -4    1    1    2    0  501  0.37887313629E+00  0.22008092431E+01  0.94979189106E+01  0.97569241982E+01  0.00000000000E+00 0. -1.
<mgrwt>
<rscale>  0 0.22331830E+01</rscale>
<asrwt>0</asrwt>
<pdfrwt beam="1">0</pdfrwt>
<pdfrwt beam="2">0</pdfrwt>
<totfact> 0.92433610E+11</totfact>
</mgrwt>
</event>
<event>
 4    2  0.2130683E+006  0.2002385E+01  0.7546771E-02  0.2979120E+00
         22   -1    0    0    0    0  0.00000000000E+00  0.00000000000E+00  0.46463615368E+01  0.46463615368E+01  0.00000000000E+00 0.  1.
         22   -1    0    0    0    0 -0.00000000000E+00 -0.00000000000E+00 -0.10575093380E+01  0.10575093380E+01  0.00000000000E+00 0. -1.
          4    1    1    2  501    0  0.19754378702E+01 -0.32740149296E+00  0.57113134999E+00  0.20822433901E+01  0.00000000000E+00 0. -1.
         -4    1    1    2    0  501 -0.19754378702E+01  0.32740149296E+00  0.30177208488E+01  0.36216274847E+01  0.00000000000E+00 0.  1.
<mgrwt>
<rscale>  0 0.20023852E+01</rscale>
<asrwt>0</asrwt>
<pdfrwt beam="1">0</pdfrwt>
<pdfrwt beam="2">0</pdfrwt>
<totfact> 0.37213261E+12</totfact>
</mgrwt>
</event>
<event>
 4    2  0.2130683E+006  0.2189213E+01  0.7546771E-02  0.2863735E+00
         22   -1    0    0    0    0  0.00000000000E+00  0.00000000000E+00  0.56820768151E+00  0.56820768151E+00  0.00000000000E+00 0.  1.
         22   -1    0    0    0    0 -0.00000000000E+00 -0.00000000000E+00 -0.10206572292E+02  0.10206572292E+02  0.00000000000E+00 0. -1.
          4    1    1    2  501    0 -0.21414879697E+01  0.45462345234E+00 -0.25744920704E+01  0.33794470891E+01  0.00000000000E+00 0.  1.
         -4    1    1    2    0  501  0.21414879697E+01 -0.45462345234E+00 -0.70638725399E+01  0.73953328842E+01  0.00000000000E+00 0. -1.
<mgrwt>
<rscale>  0 0.21892129E+01</rscale>
<asrwt>0</asrwt>
<pdfrwt beam="1">0</pdfrwt>
<pdfrwt beam="2">0</pdfrwt>
<totfact> 0.29427912E+12</totfact>
</mgrwt>
</event>
<event>
 4    2  0.2130683E+006  0.3866550E+01  0.7546771E-02  0.2303553E+00
         22   -1    0    0    0    0  0.00000000000E+00  0.00000000000E+00  0.14660643870E+01  0.14660643870E+01  0.00000000000E+00 0. -1.
         22   -1    0    0    0    0 -0.00000000000E+00 -0.00000000000E+00 -0.10270615882E+02  0.10270615882E+02  0.00000000000E+00 0.  1.
          4    1    1    2  501    0  0.30679644848E+01  0.23532536593E+01 -0.39071814871E+01  0.54969333303E+01  0.00000000000E+00 0.  1.
         -4    1    1    2    0  501 -0.30679644848E+01 -0.23532536593E+01 -0.48973700080E+01  0.62397469388E+01  0.00000000000E+00 0. -1.
<mgrwt>
<rscale>  0 0.38665500E+01</rscale>
<asrwt>0</asrwt>
<pdfrwt beam="1">0</pdfrwt>
<pdfrwt beam="2">0</pdfrwt>
<totfact> 0.99101145E+11</totfact>
</mgrwt>
</event>
<event>
 4    2  0.2130683E+006  0.2275491E+01  0.7546771E-02  0.2816626E+00
         22   -1    0    0    0    0  0.00000000000E+00  0.00000000000E+00  0.56072803140E+01  0.56072803140E+01  0.00000000000E+00 0. -1.
         22   -1    0    0    0    0 -0.00000000000E+00 -0.00000000000E+00 -0.10588532576E+01  0.10588532576E+01  0.00000000000E+00 0.  1.
          4    1    1    2  501    0  0.13632648567E+01  0.18219127477E+01  0.10821652667E+01  0.25197100616E+01  0.00000000000E+00 0.  1.
         -4    1    1    2    0  501 -0.13632648567E+01 -0.18219127477E+01  0.34662617897E+01  0.41464235100E+01  0.00000000000E+00 0. -1.
<mgrwt>
<rscale>  0 0.22754905E+01</rscale>
<asrwt>0</asrwt>
<pdfrwt beam="1">0</pdfrwt>
<pdfrwt beam="2">0</pdfrwt>
<totfact> 0.29742471E+12</totfact>
</mgrwt>
</event>
<event>
 4    2  0.2130683E+006  0.2261099E+01  0.7546771E-02  0.2824246E+00
         22   -1    0    0    0    0  0.00000000000E+00  0.00000000000E+00  0.41423166069E+01  0.41423166069E+01  0.00000000000E+00 0.  1.
         22   -1    0    0    0    0 -0.00000000000E+00 -0.00000000000E+00 -0.19420955724E+01  0.19420955724E+01  0.00000000000E+00 0. -1.
          4    1    1    2  501    0 -0.15617505869E+01  0.16350852336E+01 -0.73655019247E+00  0.23780401180E+01  0.00000000000E+00 0. -1.
         -4    1    1    2    0  501  0.15617505869E+01 -0.16350852336E+01  0.29367712270E+01  0.37063720613E+01  0.00000000000E+00 0.  1.
<mgrwt>
<rscale>  0 0.22610990E+01</rscale>
<asrwt>0</asrwt>
<pdfrwt beam="1">0</pdfrwt>
<pdfrwt beam="2">0</pdfrwt>
<totfact> 0.21186069E+12</totfact>
</mgrwt>
</event>
<event>
 4    2  0.2130683E+006  0.3492999E+01  0.7546771E-02  0.2386134E+00
         22   -1    0    0    0    0  0.00000000000E+00  0.00000000000E+00  0.34946633843E+01  0.34946633843E+01  0.00000000000E+00 0.  1.
         22   -1    0    0    0    0 -0.00000000000E+00 -0.00000000000E+00 -0.36934995554E+01  0.36934995554E+01  0.00000000000E+00 0. -1.
          4    1    1    2  501    0 -0.21953668435E+01 -0.27168743532E+01 -0.94027290493E+00  0.36173408693E+01  0.00000000000E+00 0. -1.
         -4    1    1    2    0  501  0.21953668435E+01  0.27168743532E+01  0.74143673380E+00  0.35708220705E+01  0.00000000000E+00 0.  1.
<mgrwt>
<rscale>  0 0.34929990E+01</rscale>
<asrwt>0</asrwt>
<pdfrwt beam="1">0</pdfrwt>
<pdfrwt beam="2">0</pdfrwt>
<totfact> 0.12233869E+12</totfact>
</mgrwt>
</event>
<event>
 4    2  0.2130683E+006  0.2287329E+01  0.7546771E-02  0.2810427E+00
         22   -1    0    0    0    0  0.00000000000E+00  0.00000000000E+00  0.70332477528E+01  0.70332477528E+01  0.00000000000E+00 0.  1.
         22   -1    0    0    0    0 -0.00000000000E+00 -0.00000000000E+00 -0.27237630499E+01  0.27237630499E+01  0.00000000000E+00 0. -1.
          4    1    1    2  501    0 -0.75315035444E-01  0.22860888901E+01 -0.20045760832E+01  0.30414141516E+01  0.00000000000E+00 0. -1.
         -4    1    1    2    0  501  0.75315035444E-01 -0.22860888901E+01  0.63140607862E+01  0.67155966511E+01  0.00000000000E+00 0.  1.
<mgrwt>
<rscale>  0 0.22873292E+01</rscale>
<asrwt>0</asrwt>
<pdfrwt beam="1">0</pdfrwt>
<pdfrwt beam="2">0</pdfrwt>
<totfact> 0.76320429E+11</totfact>
</mgrwt>
</event>
<event>
 4    2  0.2130683E+006  0.3746204E+01  0.7546771E-02  0.2328602E+00
         22   -1    0    0    0    0  0.00000000000E+00  0.00000000000E+00  0.37567361737E+01  0.37567361737E+01  0.00000000000E+00 0.  1.
         22   -1    0    0    0    0 -0.00000000000E+00 -0.00000000000E+00 -0.70272739421E+01  0.70272739421E+01  0.00000000000E+00 0. -1.
          4    1    1    2  501    0  0.27211236999E+01  0.25747879552E+01 -0.53255420769E+01  0.65111785122E+01  0.00000000000E+00 0. -1.
         -4    1    1    2    0  501 -0.27211236999E+01 -0.25747879552E+01  0.20550043086E+01  0.42728316036E+01  0.00000000000E+00 0.  1.
<mgrwt>
<rscale>  0 0.37462044E+01</rscale>
<asrwt>0</asrwt>
<pdfrwt beam="1">0</pdfrwt>
<pdfrwt beam="2">0</pdfrwt>
<totfact> 0.52446476E+11</totfact>
</mgrwt>
</event>
<event>
 4    2  0.2130683E+006  0.2353741E+01  0.7546771E-02  0.2776747E+00
         22   -1    0    0    0    0  0.00000000000E+00  0.00000000000E+00  0.18387562502E+01  0.18387562502E+01  0.00000000000E+00 0. -1.
         22   -1    0    0    0    0 -0.00000000000E+00 -0.00000000000E+00 -0.38994344516E+01  0.38994344516E+01  0.00000000000E+00 0.  1.
          4    1    1    2  501    0 -0.18040095541E+01  0.15118358305E+01 -0.23983117432E+01  0.33603567172E+01  0.00000000000E+00 0.  1.
         -4    1    1    2    0  501  0.18040095541E+01 -0.15118358305E+01  0.33763354182E+00  0.23778339846E+01  0.00000000000E+00 0. -1.
<mgrwt>
<rscale>  0 0.23537413E+01</rscale>
<asrwt>0</asrwt>
<pdfrwt beam="1">0</pdfrwt>
<pdfrwt beam="2">0</pdfrwt>
<totfact> 0.24232163E+12</totfact>
</mgrwt>
</event>
<event>
 4    2  0.2130683E+006  0.2858843E+01  0.7546771E-02  0.2568761E+00
         22   -1    0    0    0    0  0.00000000000E+00  0.00000000000E+00  0.21243399598E+01  0.21243399598E+01  0.00000000000E+00 0. -1.
         22   -1    0    0    0    0 -0.00000000000E+00 -0.00000000000E+00 -0.76888730290E+01  0.76888730290E+01  0.00000000000E+00 0.  1.
          4    1    1    2  501    0 -0.20201653658E+01 -0.20228477230E+01 -0.62504672353E+01  0.68732322582E+01  0.00000000000E+00 0.  1.
         -4    1    1    2    0  501  0.20201653658E+01  0.20228477230E+01  0.68593416610E+00  0.29399807305E+01  0.00000000000E+00 0. -1.
<mgrwt>
<rscale>  0 0.28588426E+01</rscale>
<asrwt>0</asrwt>
<pdfrwt beam="1">0</pdfrwt>
<pdfrwt beam="2">0</pdfrwt>
<totfact> 0.91567108E+11</totfact>
</mgrwt>
</event>
<event>
 4    2  0.2130683E+006  0.2002746E+01  0.7546771E-02  0.2978877E+00
         22   -1    0    0    0    0  0.00000000000E+00  0.00000000000E+00  0.12787139177E+01  0.12787139177E+01  0.00000000000E+00 0. -1.
         22   -1    0    0    0    0 -0.00000000000E+00 -0.00000000000E+00 -0.34263758668E+01  0.34263758668E+01  0.00000000000E+00 0.  1.
          4    1    1    2  501    0 -0.12379327884E+01 -0.15743302513E+01 -0.17578157760E+01  0.26647532027E+01  0.00000000000E+00 0.  1.
         -4    1    1    2    0  501  0.12379327884E+01  0.15743302513E+01 -0.38984617311E+00  0.20403365819E+01  0.00000000000E+00 0. -1.
<mgrwt>
<rscale>  0 0.20027464E+01</rscale>
<asrwt>0</asrwt>
<pdfrwt beam="1">0</pdfrwt>
<pdfrwt beam="2">0</pdfrwt>
<totfact> 0.42844473E+12</totfact>
</mgrwt>
</event>
<event>
 4    2  0.2130683E+006  0.4778881E+01  0.7546771E-02  0.2150360E+00
         22   -1    0    0    0    0  0.00000000000E+00  0.00000000000E+00  0.20077381165E+02  0.20077381165E+02  0.00000000000E+00 0.  1.
         22   -1    0    0    0    0 -0.00000000000E+00 -0.00000000000E+00 -0.13865288902E+01  0.13865288902E+01  0.00000000000E+00 0. -1.
          4    1    1    2  501    0 -0.46282862287E+01 -0.11902392024E+01  0.47970845570E+01  0.67712423543E+01  0.00000000000E+00 0. -1.
         -4    1    1    2    0  501  0.46282862287E+01  0.11902392024E+01  0.13893767718E+02  0.14692667701E+02  0.00000000000E+00 0.  1.
<mgrwt>
<rscale>  0 0.47788809E+01</rscale>
<asrwt>0</asrwt>
<pdfrwt beam="1">0</pdfrwt>
<pdfrwt beam="2">0</pdfrwt>
<totfact> 0.46368208E+11</totfact>
</mgrwt>
</event>
<event>
 4    2  0.2130683E+006  0.3785761E+01  0.7546771E-02  0.2320218E+00
         22   -1    0    0    0    0  0.00000000000E+00  0.00000000000E+00  0.12939196055E+01  0.12939196055E+01  0.00000000000E+00 0. -1.
         22   -1    0    0    0    0 -0.00000000000E+00 -0.00000000000E+00 -0.12379385946E+02  0.12379385946E+02  0.00000000000E+00 0.  1.
          4    1    1    2  501    0  0.37762333001E+01  0.26842158948E+00 -0.33247326076E+01  0.50384357690E+01  0.00000000000E+00 0. -1.
         -4    1    1    2    0  501 -0.37762333001E+01 -0.26842158948E+00 -0.77607337325E+01  0.86348697821E+01  0.00000000000E+00 0.  1.
<mgrwt>
<rscale>  0 0.37857612E+01</rscale>
<asrwt>0</asrwt>
<pdfrwt beam="1">0</pdfrwt>
<pdfrwt beam="2">0</pdfrwt>
<totfact> 0.91146158E+11</totfact>
</mgrwt>
</event>
<event>
 4    2  0.2130683E+006  0.2016360E+01  0.7546771E-02  0.2969770E+00
         22   -1    0    0    0    0  0.00000000000E+00  0.00000000000E+00  0.59325244813E+01  0.59325244813E+01  0.00000000000E+00 0.  1.
         22   -1    0    0    0    0 -0.00000000000E+00 -0.00000000000E+00 -0.17738321460E+01  0.17738321460E+01  0.00000000000E+00 0. -1.
          4    1    1    2  501    0  0.18165635957E+01 -0.87510197105E+00 -0.93906576209E+00  0.22243091652E+01  0.00000000000E+00 0. -1.
         -4    1    1    2    0  501 -0.18165635957E+01  0.87510197105E+00  0.50977580974E+01  0.54820474621E+01  0.00000000000E+00 0.  1.
<mgrwt>
<rscale>  0 0.20163598E+01</rscale>
<asrwt>0</asrwt>
<pdfrwt beam="1">0</pdfrwt>
<pdfrwt beam="2">0</pdfrwt>
<totfact> 0.15375886E+12</totfact>
</mgrwt>
</event>
<event>
 4    2  0.2130683E+006  0.2497017E+01  0.7546771E-02  0.2709847E+00
         22   -1    0    0    0    0  0.00000000000E+00  0.00000000000E+00  0.31304103311E+00  0.31304103311E+00  0.00000000000E+00 0. -1.
         22   -1    0    0    0    0 -0.00000000000E+00 -0.00000000000E+00 -0.20630680451E+02  0.20630680451E+02  0.00000000000E+00 0.  1.
          4    1    1    2  501    0 -0.30353918001E+00 -0.24784993117E+01 -0.12105386988E+02  0.12360238226E+02  0.00000000000E+00 0.  1.
         -4    1    1    2    0  501  0.30353918001E+00  0.24784993117E+01 -0.82122524302E+01  0.85834832586E+01  0.00000000000E+00 0. -1.
<mgrwt>
<rscale>  0 0.24970172E+01</rscale>
<asrwt>0</asrwt>
<pdfrwt beam="1">0</pdfrwt>
<pdfrwt beam="2">0</pdfrwt>
<totfact> 0.24249748E+12</totfact>
</mgrwt>
</event>
<event>
 4    2  0.2130683E+006  0.2317390E+01  0.7546771E-02  0.2794956E+00
         22   -1    0    0    0    0  0.00000000000E+00  0.00000000000E+00  0.28285431094E+01  0.28285431094E+01  0.00000000000E+00 0. -1.
         22   -1    0    0    0    0 -0.00000000000E+00 -0.00000000000E+00 -0.54467043059E+01  0.54467043059E+01  0.00000000000E+00 0.  1.
          4    1    1    2  501    0  0.37922186069E+00 -0.22861507842E+01 -0.46485832360E+01  0.51941910564E+01  0.00000000000E+00 0.  1.
         -4    1    1    2    0  501 -0.37922186069E+00  0.22861507842E+01  0.20304220396E+01  0.30810563589E+01  0.00000000000E+00 0. -1.
<mgrwt>
<rscale>  0 0.23173896E+01</rscale>
<asrwt>0</asrwt>
<pdfrwt beam="1">0</pdfrwt>
<pdfrwt beam="2">0</pdfrwt>
<totfact> 0.99041547E+11</totfact>
</mgrwt>
</event>
<event>
 4    2  0.2130683E+006  0.2081981E+01  0.7546771E-02  0.2927504E+00
         22   -1    0    0    0    0  0.00000000000E+00  0.00000000000E+00  0.53124362760E+01  0.53124362760E+01  0.00000000000E+00 0.  1.
         22   -1    0    0    0    0 -0.00000000000E+00 -0.00000000000E+00 -0.25873836895E+01  0.25873836895E+01  0.00000000000E+00 0. -1.
          4    1    1    2  501    0 -0.86402865450E+00 -0.18942275553E+01 -0.19057602535E+01  0.28225105298E+01  0.00000000000E+00 0. -1.
         -4    1    1    2    0  501  0.86402865450E+00  0.18942275553E+01  0.46308128400E+01  0.50773094357E+01  0.00000000000E+00 0.  1.
<mgrwt>
<rscale>  0 0.20819807E+01</rscale>
<asrwt>0</asrwt>
<pdfrwt beam="1">0</pdfrwt>
<pdfrwt beam="2">0</pdfrwt>
<totfact> 0.11317672E+12</totfact>
</mgrwt>
</event>
<event>
 4    2  0.2130683E+006  0.2534654E+01  0.7546771E-02  0.2693447E+00
         22   -1    0    0    0    0  0.00000000000E+00  0.00000000000E+00  0.72592328804E+01  0.72592328804E+01  0.00000000000E+00 0. -1.
         22   -1    0    0    0    0 -0.00000000000E+00 -0.00000000000E+00 -0.10618117802E+01  0.10618117802E+01  0.00000000000E+00 0.  1.
          4    1    1    2  501    0  0.12660574230E+01 -0.21958074927E+01  0.14009709293E+01  0.28960648280E+01  0.00000000000E+00 0.  1.
         -4    1    1    2    0  501 -0.12660574230E+01  0.21958074927E+01  0.47964501709E+01  0.54249798327E+01  0.00000000000E+00 0. -1.
<mgrwt>
<rscale>  0 0.25346542E+01</rscale>
<asrwt>0</asrwt>
<pdfrwt beam="1">0</pdfrwt>
<pdfrwt beam="2">0</pdfrwt>
<totfact> 0.21790064E+12</totfact>
</mgrwt>
</event>
<event>
 4    2  0.2130683E+006  0.3476455E+01  0.7546771E-02  0.2390145E+00
         22   -1    0    0    0    0  0.00000000000E+00  0.00000000000E+00  0.25838352876E+01  0.25838352876E+01  0.00000000000E+00 0. -1.
         22   -1    0    0    0    0 -0.00000000000E+00 -0.00000000000E+00 -0.34145727529E+02  0.34145727529E+02  0.00000000000E+00 0.  1.
          4    1    1    2  501    0  0.10214188511E+00  0.34749546579E+01 -0.32841573741E+02  0.33025061827E+02  0.00000000000E+00 0.  1.
         -4    1    1    2    0  501 -0.10214188511E+00 -0.34749546579E+01  0.12796815003E+01  0.37045009896E+01  0.00000000000E+00 0. -1.
<mgrwt>
<rscale>  0 0.34764555E+01</rscale>
<asrwt>0</asrwt>
<pdfrwt beam="1">0</pdfrwt>
<pdfrwt beam="2">0</pdfrwt>
<totfact> 0.11532142E+11</totfact>
</mgrwt>
</event>
<event>
 4    2  0.2130683E+006  0.2431868E+01  0.7546771E-02  0.2739351E+00
         22   -1    0    0    0    0  0.00000000000E+00  0.00000000000E+00  0.14297284991E+01  0.14297284991E+01  0.00000000000E+00 0. -1.
         22   -1    0    0    0    0 -0.00000000000E+00 -0.00000000000E+00 -0.46633580272E+01  0.46633580272E+01  0.00000000000E+00 0.  1.
          4    1    1    2  501    0  0.84808768583E+00 -0.22791946193E+01 -0.26408880359E+01  0.35900237400E+01  0.00000000000E+00 0.  1.
         -4    1    1    2    0  501 -0.84808768583E+00  0.22791946193E+01 -0.59274149222E+00  0.25030627863E+01  0.00000000000E+00 0. -1.
<mgrwt>
<rscale>  0 0.24318678E+01</rscale>
<asrwt>0</asrwt>
<pdfrwt beam="1">0</pdfrwt>
<pdfrwt beam="2">0</pdfrwt>
<totfact> 0.26226188E+12</totfact>
</mgrwt>
</event>
<event>
 4    2  0.2130683E+006  0.2371846E+01  0.7546771E-02  0.2767875E+00
         22   -1    0    0    0    0  0.00000000000E+00  0.00000000000E+00  0.31405537970E+01  0.31405537970E+01  0.00000000000E+00 0. -1.
         22   -1    0    0    0    0 -0.00000000000E+00 -0.00000000000E+00 -0.17949649909E+01  0.17949649909E+01  0.00000000000E+00 0.  1.
          4    1    1    2  501    0 -0.23085037313E+01  0.54448391980E+00  0.56117950768E+00  0.24373294107E+01  0.00000000000E+00 0. -1.
         -4    1    1    2    0  501  0.23085037313E+01 -0.54448391980E+00  0.78440929847E+00  0.24981893771E+01  0.00000000000E+00 0.  1.
<mgrwt>
<rscale>  0 0.23718457E+01</rscale>
<asrwt>0</asrwt>
<pdfrwt beam="1">0</pdfrwt>
<pdfrwt beam="2">0</pdfrwt>
<totfact> 0.32115300E+12</totfact>
</mgrwt>
</event>
<event>
 4    2  0.2130683E+006  0.2769010E+01  0.7546771E-02  0.2600633E+00
         22   -1    0    0    0    0  0.00000000000E+00  0.00000000000E+00  0.14394028020E+02  0.14394028020E+02  0.00000000000E+00 0.  1.
         22   -1    0    0    0    0 -0.00000000000E+00 -0.00000000000E+00 -0.12705911277E+01  0.12705911277E+01  0.00000000000E+00 0. -1.
          4    1    1    2  501    0  0.25281519891E+01 -0.11295422829E+01  0.59289388653E+00  0.28317735448E+01  0.00000000000E+00 0. -1.
         -4    1    1    2    0  501 -0.25281519891E+01  0.11295422829E+01  0.12530543006E+02  0.12832845603E+02  0.00000000000E+00 0.  1.
<mgrwt>
<rscale>  0 0.27690103E+01</rscale>
<asrwt>0</asrwt>
<pdfrwt beam="1">0</pdfrwt>
<pdfrwt beam="2">0</pdfrwt>
<totfact> 0.77375989E+11</totfact>
</mgrwt>
</event>
<event>
 4    2  0.2130683E+006  0.4423206E+01  0.7546771E-02  0.2203029E+00
         22   -1    0    0    0    0  0.00000000000E+00  0.00000000000E+00  0.14196934436E+02  0.14196934436E+02  0.00000000000E+00 0.  1.
         22   -1    0    0    0    0 -0.00000000000E+00 -0.00000000000E+00 -0.25579678018E+01  0.25579678018E+01  0.00000000000E+00 0. -1.
          4    1    1    2  501    0  0.44228857233E+01  0.53197900954E-01  0.12988439766E+00  0.44251122126E+01  0.00000000000E+00 0. -1.
         -4    1    1    2    0  501 -0.44228857233E+01 -0.53197900954E-01  0.11509082236E+02  0.12329790025E+02  0.00000000000E+00 0.  1.
<mgrwt>
<rscale>  0 0.44232056E+01</rscale>
<asrwt>0</asrwt>
<pdfrwt beam="1">0</pdfrwt>
<pdfrwt beam="2">0</pdfrwt>
<totfact> 0.35071366E+11</totfact>
</mgrwt>
</event>
<event>
 4    2  0.2130683E+006  0.2365570E+01  0.7546771E-02  0.2770936E+00
         22   -1    0    0    0    0  0.00000000000E+00  0.00000000000E+00  0.17791797606E+02  0.17791797606E+02  0.00000000000E+00 0.  1.
         22   -1    0    0    0    0 -0.00000000000E+00 -0.00000000000E+00 -0.38657389413E+00  0.38657389413E+00  0.00000000000E+00 0. -1.
          4    1    1    2  501    0 -0.18305672597E+01  0.14983137466E+01  0.47786034703E+01  0.53320701141E+01  0.00000000000E+00 0.  1.
         -4    1    1    2    0  501  0.18305672597E+01 -0.14983137466E+01  0.12626620241E+02  0.12846301386E+02  0.00000000000E+00 0. -1.
<mgrwt>
<rscale>  0 0.23655698E+01</rscale>
<asrwt>0</asrwt>
<pdfrwt beam="1">0</pdfrwt>
<pdfrwt beam="2">0</pdfrwt>
<totfact> 0.23001991E+12</totfact>
</mgrwt>
</event>
<event>
 4    2  0.2130683E+006  0.6029082E+01  0.7546771E-02  0.2017090E+00
         22   -1    0    0    0    0  0.00000000000E+00  0.00000000000E+00  0.53308664875E+01  0.53308664875E+01  0.00000000000E+00 0.  1.
         22   -1    0    0    0    0 -0.00000000000E+00 -0.00000000000E+00 -0.23156633361E+02  0.23156633361E+02  0.00000000000E+00 0. -1.
          4    1    1    2  501    0 -0.10684117330E+01  0.59336607170E+01 -0.20877108051E+02  0.21730243296E+02  0.00000000000E+00 0. -1.
         -4    1    1    2    0  501  0.10684117330E+01 -0.59336607170E+01  0.30513411773E+01  0.67572565525E+01  0.00000000000E+00 0.  1.
<mgrwt>
<rscale>  0 0.60290823E+01</rscale>
<asrwt>0</asrwt>
<pdfrwt beam="1">0</pdfrwt>
<pdfrwt beam="2">0</pdfrwt>
<totfact> 0.80652545E+10</totfact>
</mgrwt>
</event>
<event>
 4    2  0.2130683E+006  0.2093132E+01  0.7546771E-02  0.2920578E+00
         22   -1    0    0    0    0  0.00000000000E+00  0.00000000000E+00  0.45110958535E+00  0.45110958535E+00  0.00000000000E+00 0. -1.
         22   -1    0    0    0    0 -0.00000000000E+00 -0.00000000000E+00 -0.98048631595E+01  0.98048631595E+01  0.00000000000E+00 0.  1.
          4    1    1    2  501    0 -0.19828870962E+01  0.67034343441E+00 -0.51757806049E+01  0.55830015607E+01  0.00000000000E+00 0.  1.
         -4    1    1    2    0  501  0.19828870962E+01 -0.67034343441E+00 -0.41779729692E+01  0.46729711841E+01  0.00000000000E+00 0. -1.
<mgrwt>
<rscale>  0 0.20931320E+01</rscale>
<asrwt>0</asrwt>
<pdfrwt beam="1">0</pdfrwt>
<pdfrwt beam="2">0</pdfrwt>
<totfact> 0.40092749E+12</totfact>
</mgrwt>
</event>
<event>
 4    2  0.2130683E+006  0.4258625E+01  0.7546771E-02  0.2230425E+00
         22   -1    0    0    0    0  0.00000000000E+00  0.00000000000E+00  0.15789247271E+01  0.15789247271E+01  0.00000000000E+00 0. -1.
         22   -1    0    0    0    0 -0.00000000000E+00 -0.00000000000E+00 -0.28435405521E+02  0.28435405521E+02  0.00000000000E+00 0.  1.
          4    1    1    2  501    0  0.16347936189E+01  0.39323452842E+01 -0.25014500146E+02  0.25374418362E+02  0.00000000000E+00 0.  1.
         -4    1    1    2    0  501 -0.16347936189E+01 -0.39323452842E+01 -0.18419806478E+01  0.46399118868E+01  0.00000000000E+00 0. -1.
<mgrwt>
<rscale>  0 0.42586253E+01</rscale>
<asrwt>0</asrwt>
<pdfrwt beam="1">0</pdfrwt>
<pdfrwt beam="2">0</pdfrwt>
<totfact> 0.25768094E+11</totfact>
</mgrwt>
</event>
<event>
 4    2  0.2130683E+006  0.2342153E+01  0.7546771E-02  0.2782494E+00
         22   -1    0    0    0    0  0.00000000000E+00  0.00000000000E+00  0.57920195958E+00  0.57920195958E+00  0.00000000000E+00 0.  1.
         22   -1    0    0    0    0 -0.00000000000E+00 -0.00000000000E+00 -0.12095712833E+02  0.12095712833E+02  0.00000000000E+00 0. -1.
          4    1    1    2  501    0 -0.12046106143E+01 -0.20086297068E+01 -0.87103610654E+01  0.90197599702E+01  0.00000000000E+00 0. -1.
         -4    1    1    2    0  501  0.12046106143E+01  0.20086297068E+01 -0.28061498085E+01  0.36551548229E+01  0.00000000000E+00 0.  1.
<mgrwt>
<rscale>  0 0.23421529E+01</rscale>
<asrwt>0</asrwt>
<pdfrwt beam="1">0</pdfrwt>
<pdfrwt beam="2">0</pdfrwt>
<totfact> 0.23425654E+12</totfact>
</mgrwt>
</event>
<event>
 4    2  0.2130683E+006  0.2386108E+01  0.7546771E-02  0.2760975E+00
         22   -1    0    0    0    0  0.00000000000E+00  0.00000000000E+00  0.90243148815E+01  0.90243148815E+01  0.00000000000E+00 0. -1.
         22   -1    0    0    0    0 -0.00000000000E+00 -0.00000000000E+00 -0.13229734604E+01  0.13229734604E+01  0.00000000000E+00 0.  1.
          4    1    1    2  501    0  0.33653438640E+00  0.23622565724E+01  0.10874974657E+00  0.23885849398E+01  0.00000000000E+00 0.  1.
         -4    1    1    2    0  501 -0.33653438640E+00 -0.23622565724E+01  0.75925916745E+01  0.79587034021E+01  0.00000000000E+00 0. -1.
<mgrwt>
<rscale>  0 0.23861080E+01</rscale>
<asrwt>0</asrwt>
<pdfrwt beam="1">0</pdfrwt>
<pdfrwt beam="2">0</pdfrwt>
<totfact> 0.13039009E+12</totfact>
</mgrwt>
</event>
<event>
 4    2  0.2130683E+006  0.2117865E+01  0.7546771E-02  0.2905469E+00
         22   -1    0    0    0    0  0.00000000000E+00  0.00000000000E+00  0.14383367743E+01  0.14383367743E+01  0.00000000000E+00 0. -1.
         22   -1    0    0    0    0 -0.00000000000E+00 -0.00000000000E+00 -0.58504071884E+01  0.58504071884E+01  0.00000000000E+00 0.  1.
          4    1    1    2  501    0 -0.76048735783E+00  0.19766164673E+01 -0.46964295649E+01  0.51518738667E+01  0.00000000000E+00 0.  1.
         -4    1    1    2    0  501  0.76048735783E+00 -0.19766164673E+01  0.28435915087E+00  0.21368700960E+01  0.00000000000E+00 0. -1.
<mgrwt>
<rscale>  0 0.21178654E+01</rscale>
<asrwt>0</asrwt>
<pdfrwt beam="1">0</pdfrwt>
<pdfrwt beam="2">0</pdfrwt>
<totfact> 0.19904732E+12</totfact>
</mgrwt>
</event>
<event>
 4    2  0.2130683E+006  0.2256041E+01  0.7546771E-02  0.2826946E+00
         22   -1    0    0    0    0  0.00000000000E+00  0.00000000000E+00  0.75716256909E+01  0.75716256909E+01  0.00000000000E+00 0. -1.
         22   -1    0    0    0    0 -0.00000000000E+00 -0.00000000000E+00 -0.82568966723E+00  0.82568966723E+00  0.00000000000E+00 0.  1.
          4    1    1    2  501    0 -0.13240526468E+01 -0.18266372905E+01  0.15627616605E+01  0.27444385965E+01  0.00000000000E+00 0. -1.
         -4    1    1    2    0  501  0.13240526468E+01  0.18266372905E+01  0.51831743632E+01  0.56528767616E+01  0.00000000000E+00 0.  1.
<mgrwt>
<rscale>  0 0.22560406E+01</rscale>
<asrwt>0</asrwt>
<pdfrwt beam="1">0</pdfrwt>
<pdfrwt beam="2">0</pdfrwt>
<totfact> 0.27600150E+12</totfact>
</mgrwt>
</event>
<event>
 4    2  0.2130683E+006  0.3054723E+01  0.7546771E-02  0.2505165E+00
         22   -1    0    0    0    0  0.00000000000E+00  0.00000000000E+00  0.49132622764E+01  0.49132622764E+01  0.00000000000E+00 0. -1.
         22   -1    0    0    0    0 -0.00000000000E+00 -0.00000000000E+00 -0.26658425910E+01  0.26658425910E+01  0.00000000000E+00 0.  1.
          4    1    1    2  501    0 -0.13983059022E+01 -0.27158922713E+01 -0.90847654132E+00  0.31869514981E+01  0.00000000000E+00 0.  1.
         -4    1    1    2    0  501  0.13983059022E+01  0.27158922713E+01  0.31558962268E+01  0.43921533693E+01  0.00000000000E+00 0. -1.
<mgrwt>
<rscale>  0 0.30547226E+01</rscale>
<asrwt>0</asrwt>
<pdfrwt beam="1">0</pdfrwt>
<pdfrwt beam="2">0</pdfrwt>
<totfact> 0.11991700E+12</totfact>
</mgrwt>
</event>
<event>
 4    2  0.2130683E+006  0.2022870E+01  0.7546771E-02  0.2965457E+00
         22   -1    0    0    0    0  0.00000000000E+00  0.00000000000E+00  0.21122299364E+00  0.21122299364E+00  0.00000000000E+00 0.  1.
         22   -1    0    0    0    0 -0.00000000000E+00 -0.00000000000E+00 -0.20051020891E+02  0.20051020891E+02  0.00000000000E+00 0. -1.
          4    1    1    2  501    0 -0.19998705593E+01 -0.30417456602E+00 -0.11783011491E+02  0.11955390592E+02  0.00000000000E+00 0.  1.
         -4    1    1    2    0  501  0.19998705593E+01  0.30417456602E+00 -0.80567864065E+01  0.83068532924E+01  0.00000000000E+00 0. -1.
<mgrwt>
<rscale>  0 0.20228703E+01</rscale>
<asrwt>0</asrwt>
<pdfrwt beam="1">0</pdfrwt>
<pdfrwt beam="2">0</pdfrwt>
<totfact> 0.39022100E+12</totfact>
</mgrwt>
</event>
<event>
 4    2  0.2130683E+006  0.2245603E+01  0.7546771E-02  0.2832554E+00
         22   -1    0    0    0    0  0.00000000000E+00  0.00000000000E+00  0.63979768342E+01  0.63979768342E+01  0.00000000000E+00 0. -1.
         22   -1    0    0    0    0 -0.00000000000E+00 -0.00000000000E+00 -0.79037730891E+00  0.79037730891E+00  0.00000000000E+00 0.  1.
          4    1    1    2  501    0  0.17087933398E+01 -0.14569690468E+01  0.29934688862E+01  0.37421370170E+01  0.00000000000E+00 0. -1.
         -4    1    1    2    0  501 -0.17087933398E+01  0.14569690468E+01  0.26141306390E+01  0.34462171260E+01  0.00000000000E+00 0.  1.
<mgrwt>
<rscale>  0 0.22456031E+01</rscale>
<asrwt>0</asrwt>
<pdfrwt beam="1">0</pdfrwt>
<pdfrwt beam="2">0</pdfrwt>
<totfact> 0.35480347E+12</totfact>
</mgrwt>
</event>
<event>
 4    2  0.2130683E+006  0.2089292E+01  0.7546771E-02  0.2922955E+00
         22   -1    0    0    0    0  0.00000000000E+00  0.00000000000E+00  0.22175267833E+02  0.22175267833E+02  0.00000000000E+00 0. -1.
         22   -1    0    0    0    0 -0.00000000000E+00 -0.00000000000E+00 -0.20539927578E+00  0.20539927578E+00  0.00000000000E+00 0.  1.
          4    1    1    2  501    0 -0.86029377175E+00  0.19039525946E+01  0.87015570796E+01  0.89488678874E+01  0.00000000000E+00 0. -1.
         -4    1    1    2    0  501  0.86029377175E+00 -0.19039525946E+01  0.13268311478E+02  0.13431799221E+02  0.00000000000E+00 0.  1.
<mgrwt>
<rscale>  0 0.20892920E+01</rscale>
<asrwt>0</asrwt>
<pdfrwt beam="1">0</pdfrwt>
<pdfrwt beam="2">0</pdfrwt>
<totfact> 0.35497349E+12</totfact>
</mgrwt>
</event>
<event>
 4    2  0.2130683E+006  0.2454541E+01  0.7546771E-02  0.2728917E+00
         22   -1    0    0    0    0  0.00000000000E+00  0.00000000000E+00  0.78567628069E+00  0.78567628069E+00  0.00000000000E+00 0.  1.
         22   -1    0    0    0    0 -0.00000000000E+00 -0.00000000000E+00 -0.23540527813E+02  0.23540527813E+02  0.00000000000E+00 0. -1.
          4    1    1    2  501    0  0.15001740406E+01 -0.19427423961E+01 -0.21364901582E+02  0.21505436284E+02  0.00000000000E+00 0. -1.
         -4    1    1    2    0  501 -0.15001740406E+01  0.19427423961E+01 -0.13899499503E+01  0.28207678093E+01  0.00000000000E+00 0.  1.
<mgrwt>
<rscale>  0 0.24545407E+01</rscale>
<asrwt>0</asrwt>
<pdfrwt beam="1">0</pdfrwt>
<pdfrwt beam="2">0</pdfrwt>
<totfact> 0.72711458E+11</totfact>
</mgrwt>
</event>
<event>
 4    2  0.2130683E+006  0.4018739E+01  0.7546771E-02  0.2273727E+00
         22   -1    0    0    0    0  0.00000000000E+00  0.00000000000E+00  0.78261263496E+01  0.78261263496E+01  0.00000000000E+00 0. -1.
         22   -1    0    0    0    0 -0.00000000000E+00 -0.00000000000E+00 -0.51123552224E+01  0.51123552224E+01  0.00000000000E+00 0.  1.
          4    1    1    2  501    0  0.39868559166E+01  0.50521906446E+00 -0.36388749074E+01  0.54214091336E+01  0.00000000000E+00 0.  1.
         -4    1    1    2    0  501 -0.39868559166E+01 -0.50521906446E+00  0.63526460346E+01  0.75170724384E+01  0.00000000000E+00 0. -1.
<mgrwt>
<rscale>  0 0.40187394E+01</rscale>
<asrwt>0</asrwt>
<pdfrwt beam="1">0</pdfrwt>
<pdfrwt beam="2">0</pdfrwt>
<totfact> 0.32049807E+11</totfact>
</mgrwt>
</event>
<event>
 4    2  0.2130683E+006  0.2021253E+01  0.7546771E-02  0.2966526E+00
         22   -1    0    0    0    0  0.00000000000E+00  0.00000000000E+00  0.45428639707E+02  0.45428639707E+02  0.00000000000E+00 0.  1.
         22   -1    0    0    0    0 -0.00000000000E+00 -0.00000000000E+00 -0.11703489937E+00  0.11703489937E+00  0.00000000000E+00 0. -1.
          4    1    1    2  501    0  0.19690122836E+01 -0.45656724082E+00  0.11696780180E+02  0.11870136040E+02  0.00000000000E+00 0.  1.
         -4    1    1    2    0  501 -0.19690122836E+01  0.45656724082E+00  0.33614824628E+02  0.33675538567E+02  0.00000000000E+00 0. -1.
<mgrwt>
<rscale>  0 0.20212528E+01</rscale>
<asrwt>0</asrwt>
<pdfrwt beam="1">0</pdfrwt>
<pdfrwt beam="2">0</pdfrwt>
<totfact> 0.26505849E+12</totfact>
</mgrwt>
</event>
<event>
 4    2  0.2130683E+006  0.2054814E+01  0.7546771E-02  0.2944682E+00
         22   -1    0    0    0    0  0.00000000000E+00  0.00000000000E+00  0.15890197012E+02  0.15890197012E+02  0.00000000000E+00 0.  1.
         22   -1    0    0    0    0 -0.00000000000E+00 -0.00000000000E+00 -0.62844631120E+00  0.62844631120E+00  0.00000000000E+00 0. -1.
          4    1    1    2  501    0 -0.11443630894E+00 -0.20516248297E+01  0.13560311435E+01  0.24619261916E+01  0.00000000000E+00 0. -1.
         -4    1    1    2    0  501  0.11443630894E+00  0.20516248297E+01  0.13905719557E+02  0.14056717131E+02  0.00000000000E+00 0.  1.
<mgrwt>
<rscale>  0 0.20548139E+01</rscale>
<asrwt>0</asrwt>
<pdfrwt beam="1">0</pdfrwt>
<pdfrwt beam="2">0</pdfrwt>
<totfact> 0.15282141E+12</totfact>
</mgrwt>
</event>
<event>
 4    2  0.2130683E+006  0.3009080E+01  0.7546771E-02  0.2519318E+00
         22   -1    0    0    0    0  0.00000000000E+00  0.00000000000E+00  0.27316799980E+02  0.27316799980E+02  0.00000000000E+00 0.  1.
         22   -1    0    0    0    0 -0.00000000000E+00 -0.00000000000E+00 -0.15700027504E+01  0.15700027504E+01  0.00000000000E+00 0. -1.
          4    1    1    2  501    0 -0.18707532337E+01 -0.23568722570E+01  0.44957395365E-01  0.30094161668E+01  0.00000000000E+00 0. -1.
         -4    1    1    2    0  501  0.18707532337E+01  0.23568722570E+01  0.25701839835E+02  0.25877386564E+02  0.00000000000E+00 0.  1.
<mgrwt>
<rscale>  0 0.30090803E+01</rscale>
<asrwt>0</asrwt>
<pdfrwt beam="1">0</pdfrwt>
<pdfrwt beam="2">0</pdfrwt>
<totfact> 0.27291710E+11</totfact>
</mgrwt>
</event>
<event>
 4    2  0.2130683E+006  0.2507742E+01  0.7546771E-02  0.2705127E+00
         22   -1    0    0    0    0  0.00000000000E+00  0.00000000000E+00  0.10557183623E+02  0.10557183623E+02  0.00000000000E+00 0. -1.
         22   -1    0    0    0    0 -0.00000000000E+00 -0.00000000000E+00 -0.12159809996E+01  0.12159809996E+01  0.00000000000E+00 0.  1.
          4    1    1    2  501    0 -0.38446202037E-01  0.25074467800E+01  0.46625061869E+00  0.25507169785E+01  0.00000000000E+00 0.  1.
         -4    1    1    2    0  501  0.38446202037E-01 -0.25074467800E+01  0.88749520048E+01  0.92224476443E+01  0.00000000000E+00 0. -1.
<mgrwt>
<rscale>  0 0.25077415E+01</rscale>
<asrwt>0</asrwt>
<pdfrwt beam="1">0</pdfrwt>
<pdfrwt beam="2">0</pdfrwt>
<totfact> 0.11880193E+12</totfact>
</mgrwt>
</event>
<event>
 4    2  0.2130683E+006  0.2184667E+01  0.7546771E-02  0.2866316E+00
         22   -1    0    0    0    0  0.00000000000E+00  0.00000000000E+00  0.95331560397E+01  0.95331560397E+01  0.00000000000E+00 0. -1.
         22   -1    0    0    0    0 -0.00000000000E+00 -0.00000000000E+00 -0.56971817075E+00  0.56971817075E+00  0.00000000000E+00 0.  1.
          4    1    1    2  501    0 -0.21566529645E+01  0.34873984342E+00  0.27228847077E+01  0.34909701545E+01  0.00000000000E+00 0.  1.
         -4    1    1    2    0  501  0.21566529645E+01 -0.34873984342E+00  0.62405531612E+01  0.66119040560E+01  0.00000000000E+00 0. -1.
<mgrwt>
<rscale>  0 0.21846674E+01</rscale>
<asrwt>0</asrwt>
<pdfrwt beam="1">0</pdfrwt>
<pdfrwt beam="2">0</pdfrwt>
<totfact> 0.31866306E+12</totfact>
</mgrwt>
</event>
<event>
 4    2  0.2130683E+006  0.4565255E+01  0.7546771E-02  0.2180724E+00
         22   -1    0    0    0    0  0.00000000000E+00  0.00000000000E+00  0.75196935055E+01  0.75196935055E+01  0.00000000000E+00 0.  1.
         22   -1    0    0    0    0 -0.00000000000E+00 -0.00000000000E+00 -0.29332265001E+01  0.29332265001E+01  0.00000000000E+00 0. -1.
          4    1    1    2  501    0 -0.40206861922E+01 -0.21623220307E+01  0.10663701120E+01  0.46881445409E+01  0.00000000000E+00 0. -1.
         -4    1    1    2    0  501  0.40206861922E+01  0.21623220307E+01  0.35200968933E+01  0.57647754647E+01  0.00000000000E+00 0.  1.
<mgrwt>
<rscale>  0 0.45652551E+01</rscale>
<asrwt>0</asrwt>
<pdfrwt beam="1">0</pdfrwt>
<pdfrwt beam="2">0</pdfrwt>
<totfact> 0.64616984E+11</totfact>
</mgrwt>
</event>
<event>
 4    2  0.2130683E+006  0.5082565E+01  0.7546771E-02  0.2113276E+00
         22   -1    0    0    0    0  0.00000000000E+00  0.00000000000E+00  0.76943086359E+01  0.76943086359E+01  0.00000000000E+00 0.  1.
         22   -1    0    0    0    0 -0.00000000000E+00 -0.00000000000E+00 -0.58332485890E+01  0.58332485890E+01  0.00000000000E+00 0. -1.
          4    1    1    2  501    0 -0.50805373460E+01  0.14355415688E+00 -0.34760411706E+01  0.61575425081E+01  0.00000000000E+00 0. -1.
         -4    1    1    2    0  501  0.50805373460E+01 -0.14355415688E+00  0.53371012175E+01  0.73700147168E+01  0.00000000000E+00 0.  1.
<mgrwt>
<rscale>  0 0.50825651E+01</rscale>
<asrwt>0</asrwt>
<pdfrwt beam="1">0</pdfrwt>
<pdfrwt beam="2">0</pdfrwt>
<totfact> 0.27968866E+11</totfact>
</mgrwt>
</event>
<event>
 4    2  0.2130683E+006  0.3671000E+01  0.7546771E-02  0.2344971E+00
         22   -1    0    0    0    0  0.00000000000E+00  0.00000000000E+00  0.14652242272E+01  0.14652242272E+01  0.00000000000E+00 0.  1.
         22   -1    0    0    0    0 -0.00000000000E+00 -0.00000000000E+00 -0.15387637922E+02  0.15387637922E+02  0.00000000000E+00 0. -1.
          4    1    1    2  501    0 -0.31203526698E+01 -0.19338156038E+01 -0.12305762420E+02  0.12841652243E+02  0.00000000000E+00 0. -1.
         -4    1    1    2    0  501  0.31203526698E+01  0.19338156038E+01 -0.16166512748E+01  0.40112099069E+01  0.00000000000E+00 0.  1.
<mgrwt>
<rscale>  0 0.36710004E+01</rscale>
<asrwt>0</asrwt>
<pdfrwt beam="1">0</pdfrwt>
<pdfrwt beam="2">0</pdfrwt>
<totfact> 0.60514334E+11</totfact>
</mgrwt>
</event>
<event>
 4    2  0.2130683E+006  0.2287926E+01  0.7546771E-02  0.2810116E+00
         22   -1    0    0    0    0  0.00000000000E+00  0.00000000000E+00  0.87642680539E-01  0.87642680539E-01  0.00000000000E+00 0. -1.
         22   -1    0    0    0    0 -0.00000000000E+00 -0.00000000000E+00 -0.69203481193E+02  0.69203481193E+02  0.00000000000E+00 0.  1.
          4    1    1    2  501    0 -0.11567978679E+01  0.19739365112E+01 -0.47378699014E+02  0.47433909041E+02  0.00000000000E+00 0.  1.
         -4    1    1    2    0  501  0.11567978679E+01 -0.19739365112E+01 -0.21737139498E+02  0.21857214832E+02  0.00000000000E+00 0. -1.
<mgrwt>
<rscale>  0 0.22879263E+01</rscale>
<asrwt>0</asrwt>
<pdfrwt beam="1">0</pdfrwt>
<pdfrwt beam="2">0</pdfrwt>
<totfact> 0.20847396E+12</totfact>
</mgrwt>
</event>
<event>
 4    2  0.2130683E+006  0.2136262E+01  0.7546771E-02  0.2894451E+00
         22   -1    0    0    0    0  0.00000000000E+00  0.00000000000E+00  0.87083861538E+01  0.87083861538E+01  0.00000000000E+00 0.  1.
         22   -1    0    0    0    0 -0.00000000000E+00 -0.00000000000E+00 -0.58750724314E+00  0.58750724314E+00  0.00000000000E+00 0. -1.
          4    1    1    2  501    0  0.11594709315E+01  0.17942247936E+01  0.25328707562E+01  0.33134649113E+01  0.00000000000E+00 0. -1.
         -4    1    1    2    0  501 -0.11594709315E+01 -0.17942247936E+01  0.55880081545E+01  0.59824284857E+01  0.00000000000E+00 0.  1.
<mgrwt>
<rscale>  0 0.21362620E+01</rscale>
<asrwt>0</asrwt>
<pdfrwt beam="1">0</pdfrwt>
<pdfrwt beam="2">0</pdfrwt>
<totfact> 0.34327546E+12</totfact>
</mgrwt>
</event>
<event>
 4    2  0.2130683E+006  0.4082888E+01  0.7546771E-02  0.2261725E+00
         22   -1    0    0    0    0  0.00000000000E+00  0.00000000000E+00  0.52787107034E+01  0.52787107034E+01  0.00000000000E+00 0. -1.
         22   -1    0    0    0    0 -0.00000000000E+00 -0.00000000000E+00 -0.38138637090E+01  0.38138637090E+01  0.00000000000E+00 0.  1.
          4    1    1    2  501    0 -0.38468503575E+01  0.13681056363E+01 -0.11529330063E+01  0.42425493777E+01  0.00000000000E+00 0. -1.
         -4    1    1    2    0  501  0.38468503575E+01 -0.13681056363E+01  0.26177800008E+01  0.48500250347E+01  0.00000000000E+00 0.  1.
<mgrwt>
<rscale>  0 0.40828875E+01</rscale>
<asrwt>0</asrwt>
<pdfrwt beam="1">0</pdfrwt>
<pdfrwt beam="2">0</pdfrwt>
<totfact> 0.72444376E+11</totfact>
</mgrwt>
</event>
<event>
 4    2  0.2130683E+006  0.2638651E+01  0.7546771E-02  0.2650389E+00
         22   -1    0    0    0    0  0.00000000000E+00  0.00000000000E+00  0.24868439494E+01  0.24868439494E+01  0.00000000000E+00 0.  1.
         22   -1    0    0    0    0 -0.00000000000E+00 -0.00000000000E+00 -0.46491778709E+01  0.46491778709E+01  0.00000000000E+00 0. -1.
          4    1    1    2  501    0  0.17812719539E+01 -0.19466767233E+01  0.11692328692E+01  0.28861021363E+01  0.00000000000E+00 0.  1.
         -4    1    1    2    0  501 -0.17812719539E+01  0.19466767233E+01 -0.33315667907E+01  0.42499196839E+01  0.00000000000E+00 0. -1.
<mgrwt>
<rscale>  0 0.26386512E+01</rscale>
<asrwt>0</asrwt>
<pdfrwt beam="1">0</pdfrwt>
<pdfrwt beam="2">0</pdfrwt>
<totfact> 0.13879798E+12</totfact>
</mgrwt>
</event>
<event>
 4    2  0.2130683E+006  0.5043627E+01  0.7546771E-02  0.2117832E+00
         22   -1    0    0    0    0  0.00000000000E+00  0.00000000000E+00  0.33933570838E+00  0.33933570838E+00  0.00000000000E+00 0. -1.
         22   -1    0    0    0    0 -0.00000000000E+00 -0.00000000000E+00 -0.82841758295E+02  0.82841758295E+02  0.00000000000E+00 0.  1.
          4    1    1    2  501    0  0.38958339355E+01 -0.32032245539E+01 -0.54076124767E+02  0.54310822489E+02  0.00000000000E+00 0.  1.
         -4    1    1    2    0  501 -0.38958339355E+01  0.32032245539E+01 -0.28426297820E+02  0.28870271515E+02  0.00000000000E+00 0. -1.
<mgrwt>
<rscale>  0 0.50436266E+01</rscale>
<asrwt>0</asrwt>
<pdfrwt beam="1">0</pdfrwt>
<pdfrwt beam="2">0</pdfrwt>
<totfact> 0.36095023E+11</totfact>
</mgrwt>
</event>
<event>
 4    2  0.2130683E+006  0.2439396E+01  0.7546771E-02  0.2735866E+00
         22   -1    0    0    0    0  0.00000000000E+00  0.00000000000E+00  0.23612865797E+02  0.23612865797E+02  0.00000000000E+00 0. -1.
         22   -1    0    0    0    0 -0.00000000000E+00 -0.00000000000E+00 -0.25431087192E+00  0.25431087192E+00  0.00000000000E+00 0.  1.
          4    1    1    2  501    0  0.11233563950E+01  0.21653464567E+01  0.10543930813E+02  0.10822436503E+02  0.00000000000E+00 0.  1.
         -4    1    1    2    0  501 -0.11233563950E+01 -0.21653464567E+01  0.12814624112E+02  0.13044740166E+02  0.00000000000E+00 0. -1.
<mgrwt>
<rscale>  0 0.24393964E+01</rscale>
<asrwt>0</asrwt>
<pdfrwt beam="1">0</pdfrwt>
<pdfrwt beam="2">0</pdfrwt>
<totfact> 0.25841750E+12</totfact>
</mgrwt>
</event>
<event>
 4    2  0.2130683E+006  0.2404066E+01  0.7546771E-02  0.2752397E+00
         22   -1    0    0    0    0  0.00000000000E+00  0.00000000000E+00  0.73467286141E+00  0.73467286141E+00  0.00000000000E+00 0.  1.
         22   -1    0    0    0    0 -0.00000000000E+00 -0.00000000000E+00 -0.11657576505E+02  0.11657576505E+02  0.00000000000E+00 0. -1.
          4    1    1    2  501    0 -0.18110636080E+01  0.15810071943E+01 -0.89947416977E+01  0.93104733150E+01  0.00000000000E+00 0.  1.
         -4    1    1    2    0  501  0.18110636080E+01 -0.15810071943E+01 -0.19281619455E+01  0.30817760510E+01  0.00000000000E+00 0. -1.
<mgrwt>
<rscale>  0 0.24040664E+01</rscale>
<asrwt>0</asrwt>
<pdfrwt beam="1">0</pdfrwt>
<pdfrwt beam="2">0</pdfrwt>
<totfact> 0.18712783E+12</totfact>
</mgrwt>
</event>
<event>
 4    2  0.2130683E+006  0.2157574E+01  0.7546771E-02  0.2881914E+00
         22   -1    0    0    0    0  0.00000000000E+00  0.00000000000E+00  0.75076303014E+00  0.75076303014E+00  0.00000000000E+00 0.  1.
         22   -1    0    0    0    0 -0.00000000000E+00 -0.00000000000E+00 -0.67336475248E+01  0.67336475248E+01  0.00000000000E+00 0. -1.
          4    1    1    2  501    0 -0.44672063659E+00 -0.21108213541E+01 -0.40444105402E+01  0.45839265629E+01  0.00000000000E+00 0. -1.
         -4    1    1    2    0  501  0.44672063659E+00  0.21108213541E+01 -0.19384739544E+01  0.29004839920E+01  0.00000000000E+00 0.  1.
<mgrwt>
<rscale>  0 0.21575741E+01</rscale>
<asrwt>0</asrwt>
<pdfrwt beam="1">0</pdfrwt>
<pdfrwt beam="2">0</pdfrwt>
<totfact> 0.35388265E+12</totfact>
</mgrwt>
</event>
<event>
 4    2  0.2130683E+006  0.4321306E+01  0.7546771E-02  0.2219784E+00
         22   -1    0    0    0    0  0.00000000000E+00  0.00000000000E+00  0.17914795582E+01  0.17914795582E+01  0.00000000000E+00 0. -1.
         22   -1    0    0    0    0 -0.00000000000E+00 -0.00000000000E+00 -0.22316015109E+02  0.22316015109E+02  0.00000000000E+00 0.  1.
          4    1    1    2  501    0 -0.27760454321E+01 -0.33116853483E+01 -0.19061576768E+02  0.19545265334E+02  0.00000000000E+00 0.  1.
         -4    1    1    2    0  501  0.27760454321E+01  0.33116853483E+01 -0.14629587823E+01  0.45622293329E+01  0.00000000000E+00 0. -1.
<mgrwt>
<rscale>  0 0.43213063E+01</rscale>
<asrwt>0</asrwt>
<pdfrwt beam="1">0</pdfrwt>
<pdfrwt beam="2">0</pdfrwt>
<totfact> 0.30243865E+11</totfact>
</mgrwt>
</event>
<event>
 4    2  0.2130683E+006  0.2792325E+01  0.7546771E-02  0.2592182E+00
         22   -1    0    0    0    0  0.00000000000E+00  0.00000000000E+00  0.93073753807E+01  0.93073753807E+01  0.00000000000E+00 0.  1.
         22   -1    0    0    0    0 -0.00000000000E+00 -0.00000000000E+00 -0.10103663694E+01  0.10103663694E+01  0.00000000000E+00 0. -1.
          4    1    1    2  501    0  0.12007080140E+01  0.25209880512E+01  0.20160507648E+01  0.34440588228E+01  0.00000000000E+00 0. -1.
         -4    1    1    2    0  501 -0.12007080140E+01 -0.25209880512E+01  0.62809582466E+01  0.68736829272E+01  0.00000000000E+00 0.  1.
<mgrwt>
<rscale>  0 0.27923253E+01</rscale>
<asrwt>0</asrwt>
<pdfrwt beam="1">0</pdfrwt>
<pdfrwt beam="2">0</pdfrwt>
<totfact> 0.17104452E+12</totfact>
</mgrwt>
</event>
<event>
 4    2  0.2130683E+006  0.3633142E+01  0.7546771E-02  0.2353432E+00
         22   -1    0    0    0    0  0.00000000000E+00  0.00000000000E+00  0.10659688441E+01  0.10659688441E+01  0.00000000000E+00 0.  1.
         22   -1    0    0    0    0 -0.00000000000E+00 -0.00000000000E+00 -0.12507354074E+02  0.12507354074E+02  0.00000000000E+00 0. -1.
          4    1    1    2  501    0 -0.26699850928E+01 -0.24639190801E+01 -0.50435358103E+01  0.62158644692E+01  0.00000000000E+00 0.  1.
         -4    1    1    2    0  501  0.26699850928E+01  0.24639190801E+01 -0.63978494192E+01  0.73574584484E+01  0.00000000000E+00 0. -1.
<mgrwt>
<rscale>  0 0.36331416E+01</rscale>
<asrwt>0</asrwt>
<pdfrwt beam="1">0</pdfrwt>
<pdfrwt beam="2">0</pdfrwt>
<totfact> 0.11237624E+12</totfact>
</mgrwt>
</event>
<event>
 4    2  0.2130683E+006  0.3359503E+01  0.7546771E-02  0.2419485E+00
         22   -1    0    0    0    0  0.00000000000E+00  0.00000000000E+00  0.41929523212E+01  0.41929523212E+01  0.00000000000E+00 0.  1.
         22   -1    0    0    0    0 -0.00000000000E+00 -0.00000000000E+00 -0.33218297300E+01  0.33218297300E+01  0.00000000000E+00 0. -1.
          4    1    1    2  501    0 -0.28684035829E+01  0.17488620285E+01 -0.12008990402E+01  0.35676905714E+01  0.00000000000E+00 0. -1.
         -4    1    1    2    0  501  0.28684035829E+01 -0.17488620285E+01  0.20720216314E+01  0.39470914798E+01  0.00000000000E+00 0.  1.
<mgrwt>
<rscale>  0 0.33595026E+01</rscale>
<asrwt>0</asrwt>
<pdfrwt beam="1">0</pdfrwt>
<pdfrwt beam="2">0</pdfrwt>
<totfact> 0.11183759E+12</totfact>
</mgrwt>
</event>
<event>
 4    2  0.2130683E+006  0.5006721E+01  0.7546771E-02  0.2122202E+00
         22   -1    0    0    0    0  0.00000000000E+00  0.00000000000E+00  0.71265826753E+01  0.71265826753E+01  0.00000000000E+00 0.  1.
         22   -1    0    0    0    0 -0.00000000000E+00 -0.00000000000E+00 -0.35231530263E+01  0.35231530263E+01  0.00000000000E+00 0. -1.
          4    1    1    2  501    0  0.46121101809E+01 -0.19482534085E+01  0.20163384045E+01  0.53974875846E+01  0.00000000000E+00 0. -1.
         -4    1    1    2    0  501 -0.46121101809E+01  0.19482534085E+01  0.15870912445E+01  0.52522481170E+01  0.00000000000E+00 0.  1.
<mgrwt>
<rscale>  0 0.50067206E+01</rscale>
<asrwt>0</asrwt>
<pdfrwt beam="1">0</pdfrwt>
<pdfrwt beam="2">0</pdfrwt>
<totfact> 0.55609631E+11</totfact>
</mgrwt>
</event>
<event>
 4    2  0.2130683E+006  0.2399825E+01  0.7546771E-02  0.2754412E+00
         22   -1    0    0    0    0  0.00000000000E+00  0.00000000000E+00  0.13103293328E+01  0.13103293328E+01  0.00000000000E+00 0. -1.
         22   -1    0    0    0    0 -0.00000000000E+00 -0.00000000000E+00 -0.52160293245E+01  0.52160293245E+01  0.00000000000E+00 0.  1.
          4    1    1    2  501    0 -0.12413375136E+01 -0.20538353489E+01 -0.32473366184E+01  0.40378649775E+01  0.00000000000E+00 0.  1.
         -4    1    1    2    0  501  0.12413375136E+01  0.20538353489E+01 -0.65836337335E+00  0.24884936798E+01  0.00000000000E+00 0. -1.
<mgrwt>
<rscale>  0 0.23998247E+01</rscale>
<asrwt>0</asrwt>
<pdfrwt beam="1">0</pdfrwt>
<pdfrwt beam="2">0</pdfrwt>
<totfact> 0.25390133E+12</totfact>
</mgrwt>
</event>
<event>
 4    2  0.2130683E+006  0.3083068E+01  0.7546771E-02  0.2496564E+00
         22   -1    0    0    0    0  0.00000000000E+00  0.00000000000E+00  0.86743653866E+00  0.86743653866E+00  0.00000000000E+00 0.  1.
         22   -1    0    0    0    0 -0.00000000000E+00 -0.00000000000E+00 -0.11103577250E+02  0.11103577250E+02  0.00000000000E+00 0. -1.
          4    1    1    2  501    0 -0.12069067631E+01  0.28370198123E+01 -0.58036006804E+01  0.65716882312E+01  0.00000000000E+00 0. -1.
         -4    1    1    2    0  501  0.12069067631E+01 -0.28370198123E+01 -0.44325400308E+01  0.53993255574E+01  0.00000000000E+00 0.  1.
<mgrwt>
<rscale>  0 0.30830675E+01</rscale>
<asrwt>0</asrwt>
<pdfrwt beam="1">0</pdfrwt>
<pdfrwt beam="2">0</pdfrwt>
<totfact> 0.16436675E+12</totfact>
</mgrwt>
</event>
<event>
 4    2  0.2130683E+006  0.3816083E+01  0.7546771E-02  0.2313892E+00
         22   -1    0    0    0    0  0.00000000000E+00  0.00000000000E+00  0.50962352220E+01  0.50962352220E+01  0.00000000000E+00 0. -1.
         22   -1    0    0    0    0 -0.00000000000E+00 -0.00000000000E+00 -0.32842166070E+01  0.32842166070E+01  0.00000000000E+00 0.  1.
          4    1    1    2  501    0  0.99995345205E+00 -0.36827411370E+01 -0.60438941617E+00  0.38636479853E+01  0.00000000000E+00 0.  1.
         -4    1    1    2    0  501 -0.99995345205E+00  0.36827411370E+01  0.24164080312E+01  0.45168038436E+01  0.00000000000E+00 0. -1.
<mgrwt>
<rscale>  0 0.38160830E+01</rscale>
<asrwt>0</asrwt>
<pdfrwt beam="1">0</pdfrwt>
<pdfrwt beam="2">0</pdfrwt>
<totfact> 0.90007871E+11</totfact>
</mgrwt>
</event>
<event>
 4    2  0.2130683E+006  0.2861015E+01  0.7546771E-02  0.2568013E+00
         22   -1    0    0    0    0  0.00000000000E+00  0.00000000000E+00  0.39967104616E+01  0.39967104616E+01  0.00000000000E+00 0.  1.
         22   -1    0    0    0    0 -0.00000000000E+00 -0.00000000000E+00 -0.41678895477E+01  0.41678895477E+01  0.00000000000E+00 0. -1.
          4    1    1    2  501    0  0.28577762805E+01  0.13609630529E+00 -0.29969751553E+01  0.41433401448E+01  0.00000000000E+00 0. -1.
         -4    1    1    2    0  501 -0.28577762805E+01 -0.13609630529E+00  0.28257960692E+01  0.40212598646E+01  0.00000000000E+00 0.  1.
<mgrwt>
<rscale>  0 0.28610151E+01</rscale>
<asrwt>0</asrwt>
<pdfrwt beam="1">0</pdfrwt>
<pdfrwt beam="2">0</pdfrwt>
<totfact> 0.90648113E+11</totfact>
</mgrwt>
</event>
<event>
 4    2  0.2130683E+006  0.2615423E+01  0.7546771E-02  0.2659732E+00
         22   -1    0    0    0    0  0.00000000000E+00  0.00000000000E+00  0.16215991408E+01  0.16215991408E+01  0.00000000000E+00 0.  1.
         22   -1    0    0    0    0 -0.00000000000E+00 -0.00000000000E+00 -0.43091907557E+01  0.43091907557E+01  0.00000000000E+00 0. -1.
          4    1    1    2  501    0  0.25975539494E+01 -0.30520617670E+00 -0.17743989927E+01  0.31605267149E+01  0.00000000000E+00 0.  1.
         -4    1    1    2    0  501 -0.25975539494E+01  0.30520617670E+00 -0.91319262220E+00  0.27702631816E+01  0.00000000000E+00 0. -1.
<mgrwt>
<rscale>  0 0.26154230E+01</rscale>
<asrwt>0</asrwt>
<pdfrwt beam="1">0</pdfrwt>
<pdfrwt beam="2">0</pdfrwt>
<totfact> 0.24904906E+12</totfact>
</mgrwt>
</event>
<event>
 4    2  0.2130683E+006  0.2176016E+01  0.7546771E-02  0.2871256E+00
         22   -1    0    0    0    0  0.00000000000E+00  0.00000000000E+00  0.37863416461E+01  0.37863416461E+01  0.00000000000E+00 0. -1.
         22   -1    0    0    0    0 -0.00000000000E+00 -0.00000000000E+00 -0.21483267089E+01  0.21483267089E+01  0.00000000000E+00 0.  1.
          4    1    1    2  501    0 -0.21358439069E+01  0.41619283408E+00 -0.10992113812E+01  0.24378907544E+01  0.00000000000E+00 0.  1.
         -4    1    1    2    0  501  0.21358439069E+01 -0.41619283408E+00  0.27372263185E+01  0.34967776006E+01  0.00000000000E+00 0. -1.
<mgrwt>
<rscale>  0 0.21760160E+01</rscale>
<asrwt>0</asrwt>
<pdfrwt beam="1">0</pdfrwt>
<pdfrwt beam="2">0</pdfrwt>
<totfact> 0.20950674E+12</totfact>
</mgrwt>
</event>
<event>
 4    2  0.2130683E+006  0.2114429E+01  0.7546771E-02  0.2907548E+00
         22   -1    0    0    0    0  0.00000000000E+00  0.00000000000E+00  0.13944147510E+01  0.13944147510E+01  0.00000000000E+00 0.  1.
         22   -1    0    0    0    0 -0.00000000000E+00 -0.00000000000E+00 -0.32064640404E+01  0.32064640404E+01  0.00000000000E+00 0. -1.
          4    1    1    2  501    0 -0.32923131974E+00  0.20886399407E+01 -0.88624065298E+00  0.22926474999E+01  0.00000000000E+00 0. -1.
         -4    1    1    2    0  501  0.32923131974E+00 -0.20886399407E+01 -0.92580863642E+00  0.23082312915E+01  0.00000000000E+00 0.  1.
<mgrwt>
<rscale>  0 0.21144290E+01</rscale>
<asrwt>0</asrwt>
<pdfrwt beam="1">0</pdfrwt>
<pdfrwt beam="2">0</pdfrwt>
<totfact> 0.41923666E+12</totfact>
</mgrwt>
</event>
<event>
 4    2  0.2130683E+006  0.5843084E+01  0.7546771E-02  0.2034052E+00
         22   -1    0    0    0    0  0.00000000000E+00  0.00000000000E+00  0.28539738715E+01  0.28539738715E+01  0.00000000000E+00 0. -1.
         22   -1    0    0    0    0 -0.00000000000E+00 -0.00000000000E+00 -0.30509398726E+02  0.30509398726E+02  0.00000000000E+00 0.  1.
          4    1    1    2  501    0  0.21223461379E+01  0.54440132615E+01 -0.26834043125E+02  0.27462838599E+02  0.00000000000E+00 0.  1.
         -4    1    1    2    0  501 -0.21223461379E+01 -0.54440132615E+01 -0.82138173020E+00  0.59005339985E+01  0.00000000000E+00 0. -1.
<mgrwt>
<rscale>  0 0.58430842E+01</rscale>
<asrwt>0</asrwt>
<pdfrwt beam="1">0</pdfrwt>
<pdfrwt beam="2">0</pdfrwt>
<totfact> 0.11862590E+11</totfact>
</mgrwt>
</event>
<event>
 4    2  0.2130683E+006  0.2746862E+01  0.7546771E-02  0.2608781E+00
         22   -1    0    0    0    0  0.00000000000E+00  0.00000000000E+00  0.29166415159E+02  0.29166415159E+02  0.00000000000E+00 0. -1.
         22   -1    0    0    0    0 -0.00000000000E+00 -0.00000000000E+00 -0.12539648796E+01  0.12539648796E+01  0.00000000000E+00 0.  1.
          4    1    1    2  501    0 -0.26930006671E+01  0.54129554486E+00  0.40551589373E+00  0.27766340414E+01  0.00000000000E+00 0.  1.
         -4    1    1    2    0  501  0.26930006671E+01 -0.54129554486E+00  0.27506934386E+02  0.27643745998E+02  0.00000000000E+00 0. -1.
<mgrwt>
<rscale>  0 0.27468625E+01</rscale>
<asrwt>0</asrwt>
<pdfrwt beam="1">0</pdfrwt>
<pdfrwt beam="2">0</pdfrwt>
<totfact> 0.32513776E+11</totfact>
</mgrwt>
</event>
<event>
 4    2  0.2130683E+006  0.2001021E+01  0.7546771E-02  0.2980040E+00
         22   -1    0    0    0    0  0.00000000000E+00  0.00000000000E+00  0.19430714325E+01  0.19430714325E+01  0.00000000000E+00 0. -1.
         22   -1    0    0    0    0 -0.00000000000E+00 -0.00000000000E+00 -0.37474152050E+01  0.37474152050E+01  0.00000000000E+00 0.  1.
          4    1    1    2  501    0  0.96806867703E+00 -0.17512647634E+01 -0.28110338391E+01  0.34505066990E+01  0.00000000000E+00 0. -1.
         -4    1    1    2    0  501 -0.96806867703E+00  0.17512647634E+01  0.10066900665E+01  0.22399799385E+01  0.00000000000E+00 0.  1.
<mgrwt>
<rscale>  0 0.20010210E+01</rscale>
<asrwt>0</asrwt>
<pdfrwt beam="1">0</pdfrwt>
<pdfrwt beam="2">0</pdfrwt>
<totfact> 0.23820453E+12</totfact>
</mgrwt>
</event>
<event>
 4    2  0.2130683E+006  0.2006521E+01  0.7546771E-02  0.2976340E+00
         22   -1    0    0    0    0  0.00000000000E+00  0.00000000000E+00  0.52396759344E+01  0.52396759344E+01  0.00000000000E+00 0. -1.
         22   -1    0    0    0    0 -0.00000000000E+00 -0.00000000000E+00 -0.93913259005E+00  0.93913259005E+00  0.00000000000E+00 0.  1.
          4    1    1    2  501    0  0.13827718676E+01 -0.14539834606E+01  0.34675558124E+01  0.40062537680E+01  0.00000000000E+00 0. -1.
         -4    1    1    2    0  501 -0.13827718676E+01  0.14539834606E+01  0.83298753197E+00  0.21725547565E+01  0.00000000000E+00 0.  1.
<mgrwt>
<rscale>  0 0.20065209E+01</rscale>
<asrwt>0</asrwt>
<pdfrwt beam="1">0</pdfrwt>
<pdfrwt beam="2">0</pdfrwt>
<totfact> 0.36965739E+12</totfact>
</mgrwt>
</event>
<event>
 4    2  0.2130683E+006  0.2507462E+01  0.7546771E-02  0.2705249E+00
         22   -1    0    0    0    0  0.00000000000E+00  0.00000000000E+00  0.10076804150E+02  0.10076804150E+02  0.00000000000E+00 0.  1.
         22   -1    0    0    0    0 -0.00000000000E+00 -0.00000000000E+00 -0.78469984834E+00  0.78469984834E+00  0.00000000000E+00 0. -1.
          4    1    1    2  501    0 -0.12824069506E+01 -0.21547155255E+01  0.21880011231E+01  0.33278695133E+01  0.00000000000E+00 0.  1.
         -4    1    1    2    0  501  0.12824069506E+01  0.21547155255E+01  0.71041031787E+01  0.75336344851E+01  0.00000000000E+00 0. -1.
<mgrwt>
<rscale>  0 0.25074622E+01</rscale>
<asrwt>0</asrwt>
<pdfrwt beam="1">0</pdfrwt>
<pdfrwt beam="2">0</pdfrwt>
<totfact> 0.20724704E+12</totfact>
</mgrwt>
</event>
<event>
 4    2  0.2130683E+006  0.3790787E+01  0.7546771E-02  0.2319163E+00
         22   -1    0    0    0    0  0.00000000000E+00  0.00000000000E+00  0.21741348956E+00  0.21741348956E+00  0.00000000000E+00 0.  1.
         22   -1    0    0    0    0 -0.00000000000E+00 -0.00000000000E+00 -0.77681711083E+02  0.77681711083E+02  0.00000000000E+00 0. -1.
          4    1    1    2  501    0  0.63374294407E+00  0.37374372343E+01 -0.53774395594E+02  0.53907844407E+02  0.00000000000E+00 0. -1.
         -4    1    1    2    0  501 -0.63374294407E+00 -0.37374372343E+01 -0.23689902000E+02  0.23991280165E+02  0.00000000000E+00 0.  1.
<mgrwt>
<rscale>  0 0.37907871E+01</rscale>
<asrwt>0</asrwt>
<pdfrwt beam="1">0</pdfrwt>
<pdfrwt beam="2">0</pdfrwt>
<totfact> 0.64916381E+11</totfact>
</mgrwt>
</event>
<event>
 4    2  0.2130683E+006  0.2167506E+01  0.7546771E-02  0.2876152E+00
         22   -1    0    0    0    0  0.00000000000E+00  0.00000000000E+00  0.14976259232E+02  0.14976259232E+02  0.00000000000E+00 0.  1.
         22   -1    0    0    0    0 -0.00000000000E+00 -0.00000000000E+00 -0.31194004488E+01  0.31194004488E+01  0.00000000000E+00 0. -1.
          4    1    1    2  501    0  0.13262894876E+01 -0.17143626410E+01 -0.26524016785E+01  0.34253930773E+01  0.00000000000E+00 0. -1.
         -4    1    1    2    0  501 -0.13262894876E+01  0.17143626410E+01  0.14509260462E+02  0.14670266603E+02  0.00000000000E+00 0.  1.
<mgrwt>
<rscale>  0 0.21675062E+01</rscale>
<asrwt>0</asrwt>
<pdfrwt beam="1">0</pdfrwt>
<pdfrwt beam="2">0</pdfrwt>
<totfact> 0.26053257E+11</totfact>
</mgrwt>
</event>
<event>
 4    2  0.2130683E+006  0.2655739E+01  0.7546771E-02  0.2643612E+00
         22   -1    0    0    0    0  0.00000000000E+00  0.00000000000E+00  0.67029519029E+00  0.67029519029E+00  0.00000000000E+00 0. -1.
         22   -1    0    0    0    0 -0.00000000000E+00 -0.00000000000E+00 -0.18256186071E+02  0.18256186071E+02  0.00000000000E+00 0.  1.
          4    1    1    2  501    0  0.13667689025E+00 -0.26522199498E+01 -0.14952336191E+02  0.15186352716E+02  0.00000000000E+00 0.  1.
         -4    1    1    2    0  501 -0.13667689025E+00  0.26522199498E+01 -0.26335546896E+01  0.37401285456E+01  0.00000000000E+00 0. -1.
<mgrwt>
<rscale>  0 0.26557393E+01</rscale>
<asrwt>0</asrwt>
<pdfrwt beam="1">0</pdfrwt>
<pdfrwt beam="2">0</pdfrwt>
<totfact> 0.11964104E+12</totfact>
</mgrwt>
</event>
<event>
 4    2  0.2130683E+006  0.2672610E+01  0.7546771E-02  0.2636999E+00
         22   -1    0    0    0    0  0.00000000000E+00  0.00000000000E+00  0.10072986495E+01  0.10072986495E+01  0.00000000000E+00 0.  1.
         22   -1    0    0    0    0 -0.00000000000E+00 -0.00000000000E+00 -0.11447727835E+02  0.11447727835E+02  0.00000000000E+00 0. -1.
          4    1    1    2  501    0 -0.24441118671E+01 -0.10812779823E+01 -0.90619793243E+01  0.94478735262E+01  0.00000000000E+00 0. -1.
         -4    1    1    2    0  501  0.24441118671E+01  0.10812779823E+01 -0.13784498610E+01  0.30071529580E+01  0.00000000000E+00 0.  1.
<mgrwt>
<rscale>  0 0.26726101E+01</rscale>
<asrwt>0</asrwt>
<pdfrwt beam="1">0</pdfrwt>
<pdfrwt beam="2">0</pdfrwt>
<totfact> 0.13354714E+12</totfact>
</mgrwt>
</event>
<event>
 4    2  0.2130683E+006  0.4405544E+01  0.7546771E-02  0.2205886E+00
         22   -1    0    0    0    0  0.00000000000E+00  0.00000000000E+00  0.85641353512E+01  0.85641353512E+01  0.00000000000E+00 0.  1.
         22   -1    0    0    0    0 -0.00000000000E+00 -0.00000000000E+00 -0.24171031479E+01  0.24171031479E+01  0.00000000000E+00 0. -1.
          4    1    1    2  501    0 -0.17762238741E+01 -0.40316057262E+01  0.17020248026E+01  0.47228915308E+01  0.00000000000E+00 0. -1.
         -4    1    1    2    0  501  0.17762238741E+01  0.40316057262E+01  0.44450074008E+01  0.62583469683E+01  0.00000000000E+00 0.  1.
<mgrwt>
<rscale>  0 0.44055438E+01</rscale>
<asrwt>0</asrwt>
<pdfrwt beam="1">0</pdfrwt>
<pdfrwt beam="2">0</pdfrwt>
<totfact> 0.69245037E+11</totfact>
</mgrwt>
</event>
<event>
 4    2  0.2130683E+006  0.2416843E+01  0.7546771E-02  0.2746366E+00
         22   -1    0    0    0    0  0.00000000000E+00  0.00000000000E+00  0.19869438211E+02  0.19869438211E+02  0.00000000000E+00 0.  1.
         22   -1    0    0    0    0 -0.00000000000E+00 -0.00000000000E+00 -0.40016090700E+00  0.40016090700E+00  0.00000000000E+00 0. -1.
          4    1    1    2  501    0  0.14944800847E+01  0.18993844360E+01  0.45139253025E+01  0.51202200730E+01  0.00000000000E+00 0.  1.
         -4    1    1    2    0  501 -0.14944800847E+01 -0.18993844360E+01  0.14955352001E+02  0.15149379044E+02  0.00000000000E+00 0. -1.
<mgrwt>
<rscale>  0 0.24168434E+01</rscale>
<asrwt>0</asrwt>
<pdfrwt beam="1">0</pdfrwt>
<pdfrwt beam="2">0</pdfrwt>
<totfact> 0.19286351E+12</totfact>
</mgrwt>
</event>
<event>
 4    2  0.2130683E+006  0.2134111E+01  0.7546771E-02  0.2895730E+00
         22   -1    0    0    0    0  0.00000000000E+00  0.00000000000E+00  0.10980910749E+01  0.10980910749E+01  0.00000000000E+00 0.  1.
         22   -1    0    0    0    0 -0.00000000000E+00 -0.00000000000E+00 -0.43005821799E+01  0.43005821799E+01  0.00000000000E+00 0. -1.
          4    1    1    2  501    0  0.19268901322E+01 -0.91734582372E+00 -0.10921123453E+01  0.23973189852E+01  0.00000000000E+00 0.  1.
         -4    1    1    2    0  501 -0.19268901322E+01  0.91734582372E+00 -0.21103787598E+01  0.30013542696E+01  0.00000000000E+00 0. -1.
<mgrwt>
<rscale>  0 0.21341108E+01</rscale>
<asrwt>0</asrwt>
<pdfrwt beam="1">0</pdfrwt>
<pdfrwt beam="2">0</pdfrwt>
<totfact> 0.39053127E+12</totfact>
</mgrwt>
</event>
<event>
 4    2  0.2130683E+006  0.2389302E+01  0.7546771E-02  0.2759440E+00
         22   -1    0    0    0    0  0.00000000000E+00  0.00000000000E+00  0.41783229661E+01  0.41783229661E+01  0.00000000000E+00 0.  1.
         22   -1    0    0    0    0 -0.00000000000E+00 -0.00000000000E+00 -0.10746536554E+02  0.10746536554E+02  0.00000000000E+00 0. -1.
          4    1    1    2  501    0 -0.84778758286E+00 -0.22338354138E+01 -0.10256041722E+02  0.10530676913E+02  0.00000000000E+00 0. -1.
         -4    1    1    2    0  501  0.84778758286E+00  0.22338354138E+01  0.36878281339E+01  0.43941826073E+01  0.00000000000E+00 0.  1.
<mgrwt>
<rscale>  0 0.23893021E+01</rscale>
<asrwt>0</asrwt>
<pdfrwt beam="1">0</pdfrwt>
<pdfrwt beam="2">0</pdfrwt>
<totfact> 0.27737199E+11</totfact>
</mgrwt>
</event>
<event>
 4    2  0.2130683E+006  0.2943836E+01  0.7546771E-02  0.2540232E+00
         22   -1    0    0    0    0  0.00000000000E+00  0.00000000000E+00  0.31111724052E+02  0.31111724052E+02  0.00000000000E+00 0.  1.
         22   -1    0    0    0    0 -0.00000000000E+00 -0.00000000000E+00 -0.32630047110E+00  0.32630047110E+00  0.00000000000E+00 0. -1.
          4    1    1    2  501    0  0.29348604513E+00  0.29291700285E+01  0.93795183216E+01  0.98306426575E+01  0.00000000000E+00 0. -1.
         -4    1    1    2    0  501 -0.29348604513E+00 -0.29291700285E+01  0.21405905259E+02  0.21607381865E+02  0.00000000000E+00 0.  1.
<mgrwt>
<rscale>  0 0.29438361E+01</rscale>
<asrwt>0</asrwt>
<pdfrwt beam="1">0</pdfrwt>
<pdfrwt beam="2">0</pdfrwt>
<totfact> 0.13780098E+12</totfact>
</mgrwt>
</event>
<event>
 4    2  0.2130683E+006  0.2195876E+01  0.7546771E-02  0.2859971E+00
         22   -1    0    0    0    0  0.00000000000E+00  0.00000000000E+00  0.39306210263E+02  0.39306210263E+02  0.00000000000E+00 0. -1.
         22   -1    0    0    0    0 -0.00000000000E+00 -0.00000000000E+00 -0.12677246392E+00  0.12677246392E+00  0.00000000000E+00 0.  1.
          4    1    1    2  501    0 -0.14743043955E+01 -0.16273596855E+01  0.23134560031E+02  0.23238539989E+02  0.00000000000E+00 0. -1.
         -4    1    1    2    0  501  0.14743043955E+01  0.16273596855E+01  0.16044877768E+02  0.16194442738E+02  0.00000000000E+00 0.  1.
<mgrwt>
<rscale>  0 0.21958764E+01</rscale>
<asrwt>0</asrwt>
<pdfrwt beam="1">0</pdfrwt>
<pdfrwt beam="2">0</pdfrwt>
<totfact> 0.29293488E+12</totfact>
</mgrwt>
</event>
<event>
 4    2  0.2130683E+006  0.2126752E+01  0.7546771E-02  0.2900124E+00
         22   -1    0    0    0    0  0.00000000000E+00  0.00000000000E+00  0.26849118134E+01  0.26849118134E+01  0.00000000000E+00 0. -1.
         22   -1    0    0    0    0 -0.00000000000E+00 -0.00000000000E+00 -0.26962131341E+01  0.26962131341E+01  0.00000000000E+00 0.  1.
          4    1    1    2  501    0  0.20948032541E+01 -0.36725312202E+00 -0.16536891751E+01  0.26940236481E+01  0.00000000000E+00 0. -1.
         -4    1    1    2    0  501 -0.20948032541E+01  0.36725312202E+00  0.16423878545E+01  0.26871012994E+01  0.00000000000E+00 0.  1.
<mgrwt>
<rscale>  0 0.21267523E+01</rscale>
<asrwt>0</asrwt>
<pdfrwt beam="1">0</pdfrwt>
<pdfrwt beam="2">0</pdfrwt>
<totfact> 0.24054920E+12</totfact>
</mgrwt>
</event>
<event>
 4    2  0.2130683E+006  0.2224305E+01  0.7546771E-02  0.2844153E+00
         22   -1    0    0    0    0  0.00000000000E+00  0.00000000000E+00  0.30597715477E+00  0.30597715477E+00  0.00000000000E+00 0.  1.
         22   -1    0    0    0    0 -0.00000000000E+00 -0.00000000000E+00 -0.16945760378E+02  0.16945760378E+02  0.00000000000E+00 0. -1.
          4    1    1    2  501    0  0.18803165177E+01  0.11882517567E+01 -0.64738385860E+01  0.68452990061E+01  0.00000000000E+00 0.  1.
         -4    1    1    2    0  501 -0.18803165177E+01 -0.11882517567E+01 -0.10165944638E+02  0.10406438527E+02  0.00000000000E+00 0. -1.
<mgrwt>
<rscale>  0 0.22243049E+01</rscale>
<asrwt>0</asrwt>
<pdfrwt beam="1">0</pdfrwt>
<pdfrwt beam="2">0</pdfrwt>
<totfact> 0.31770692E+12</totfact>
</mgrwt>
</event>
<event>
 4    2  0.2130683E+006  0.2449963E+01  0.7546771E-02  0.2731009E+00
         22   -1    0    0    0    0  0.00000000000E+00  0.00000000000E+00  0.21774189854E+01  0.21774189854E+01  0.00000000000E+00 0. -1.
         22   -1    0    0    0    0 -0.00000000000E+00 -0.00000000000E+00 -0.30834439049E+01  0.30834439049E+01  0.00000000000E+00 0.  1.
          4    1    1    2  501    0 -0.22080202767E+01  0.10615862611E+01  0.40336493500E+00  0.24829462747E+01  0.00000000000E+00 0. -1.
         -4    1    1    2    0  501  0.22080202767E+01 -0.10615862611E+01 -0.13093898545E+01  0.27779166156E+01  0.00000000000E+00 0.  1.
<mgrwt>
<rscale>  0 0.24499630E+01</rscale>
<asrwt>0</asrwt>
<pdfrwt beam="1">0</pdfrwt>
<pdfrwt beam="2">0</pdfrwt>
<totfact> 0.26239967E+12</totfact>
</mgrwt>
</event>
<event>
 4    2  0.2130683E+006  0.2205123E+01  0.7546771E-02  0.2854783E+00
         22   -1    0    0    0    0  0.00000000000E+00  0.00000000000E+00  0.26145252373E+02  0.26145252373E+02  0.00000000000E+00 0. -1.
         22   -1    0    0    0    0 -0.00000000000E+00 -0.00000000000E+00 -0.84033420376E+00  0.84033420376E+00  0.00000000000E+00 0.  1.
          4    1    1    2  501    0 -0.20463690048E+01 -0.82154892920E+00  0.74603501567E+00  0.23279039911E+01  0.00000000000E+00 0.  1.
         -4    1    1    2    0  501  0.20463690048E+01  0.82154892920E+00  0.24558883153E+02  0.24657682586E+02  0.00000000000E+00 0. -1.
<mgrwt>
<rscale>  0 0.22051233E+01</rscale>
<asrwt>0</asrwt>
<pdfrwt beam="1">0</pdfrwt>
<pdfrwt beam="2">0</pdfrwt>
<totfact> 0.59004244E+11</totfact>
</mgrwt>
</event>
<event>
 4    2  0.2130683E+006  0.2138027E+01  0.7546771E-02  0.2893404E+00
         22   -1    0    0    0    0  0.00000000000E+00  0.00000000000E+00  0.53757174508E-01  0.53757174508E-01  0.00000000000E+00 0.  1.
         22   -1    0    0    0    0 -0.00000000000E+00 -0.00000000000E+00 -0.87594258209E+02  0.87594258209E+02  0.00000000000E+00 0. -1.
          4    1    1    2  501    0 -0.21298644062E+01 -0.18664474357E+00 -0.51263355054E+02  0.51307920734E+02  0.00000000000E+00 0.  1.
         -4    1    1    2    0  501  0.21298644062E+01  0.18664474357E+00 -0.36277145981E+02  0.36340094650E+02  0.00000000000E+00 0. -1.
<mgrwt>
<rscale>  0 0.21380268E+01</rscale>
<asrwt>0</asrwt>
<pdfrwt beam="1">0</pdfrwt>
<pdfrwt beam="2">0</pdfrwt>
<totfact> 0.25872530E+12</totfact>
</mgrwt>
</event>
<event>
 4    2  0.2130683E+006  0.2823131E+01  0.7546771E-02  0.2581211E+00
         22   -1    0    0    0    0  0.00000000000E+00  0.00000000000E+00  0.11469732433E+01  0.11469732433E+01  0.00000000000E+00 0.  1.
         22   -1    0    0    0    0 -0.00000000000E+00 -0.00000000000E+00 -0.21216910852E+02  0.21216910852E+02  0.00000000000E+00 0. -1.
          4    1    1    2  501    0  0.99912849248E+00  0.26404184674E+01 -0.19204764663E+02  0.19411157956E+02  0.00000000000E+00 0. -1.
         -4    1    1    2    0  501 -0.99912849248E+00 -0.26404184674E+01 -0.86517294542E+00  0.29527261392E+01  0.00000000000E+00 0.  1.
<mgrwt>
<rscale>  0 0.28231308E+01</rscale>
<asrwt>0</asrwt>
<pdfrwt beam="1">0</pdfrwt>
<pdfrwt beam="2">0</pdfrwt>
<totfact> 0.53794735E+11</totfact>
</mgrwt>
</event>
<event>
 4    2  0.2130683E+006  0.2023797E+01  0.7546771E-02  0.2964845E+00
         22   -1    0    0    0    0  0.00000000000E+00  0.00000000000E+00  0.56437217414E+01  0.56437217414E+01  0.00000000000E+00 0.  1.
         22   -1    0    0    0    0 -0.00000000000E+00 -0.00000000000E+00 -0.85863000768E+00  0.85863000768E+00  0.00000000000E+00 0. -1.
          4    1    1    2  501    0 -0.18916896403E+01  0.71921064705E+00  0.11134042864E+01  0.23098534055E+01  0.00000000000E+00 0. -1.
         -4    1    1    2    0  501  0.18916896403E+01 -0.71921064705E+00  0.36716874473E+01  0.41924983436E+01  0.00000000000E+00 0.  1.
<mgrwt>
<rscale>  0 0.20237968E+01</rscale>
<asrwt>0</asrwt>
<pdfrwt beam="1">0</pdfrwt>
<pdfrwt beam="2">0</pdfrwt>
<totfact> 0.37486468E+12</totfact>
</mgrwt>
</event>
<event>
 4    2  0.2130683E+006  0.2324390E+01  0.7546771E-02  0.2791407E+00
         22   -1    0    0    0    0  0.00000000000E+00  0.00000000000E+00  0.40814343949E+01  0.40814343949E+01  0.00000000000E+00 0.  1.
         22   -1    0    0    0    0 -0.00000000000E+00 -0.00000000000E+00 -0.33073639806E+01  0.33073639806E+01  0.00000000000E+00 0. -1.
          4    1    1    2  501    0 -0.19561674602E+01 -0.12554673032E+01 -0.24740557121E+01  0.33946635987E+01  0.00000000000E+00 0. -1.
         -4    1    1    2    0  501  0.19561674602E+01  0.12554673032E+01  0.32481261264E+01  0.39941347767E+01  0.00000000000E+00 0.  1.
<mgrwt>
<rscale>  0 0.23243901E+01</rscale>
<asrwt>0</asrwt>
<pdfrwt beam="1">0</pdfrwt>
<pdfrwt beam="2">0</pdfrwt>
<totfact> 0.11603164E+12</totfact>
</mgrwt>
</event>
<event>
 4    2  0.2130683E+006  0.3386665E+01  0.7546771E-02  0.2412513E+00
         22   -1    0    0    0    0  0.00000000000E+00  0.00000000000E+00  0.15467203208E+00  0.15467203208E+00  0.00000000000E+00 0.  1.
         22   -1    0    0    0    0 -0.00000000000E+00 -0.00000000000E+00 -0.93360408599E+02  0.93360408599E+02  0.00000000000E+00 0. -1.
          4    1    1    2  501    0  0.31031627183E+01 -0.13564210605E+01 -0.67810747194E+02  0.67895264430E+02  0.00000000000E+00 0. -1.
         -4    1    1    2    0  501 -0.31031627183E+01  0.13564210605E+01 -0.25394989372E+02  0.25619816201E+02  0.00000000000E+00 0.  1.
<mgrwt>
<rscale>  0 0.33866646E+01</rscale>
<asrwt>0</asrwt>
<pdfrwt beam="1">0</pdfrwt>
<pdfrwt beam="2">0</pdfrwt>
<totfact> 0.73569210E+11</totfact>
</mgrwt>
</event>
