<event>
 4    1  0.3281603E+006  0.2974944E+01  0.7546771E-02  0.2530158E+00
         22   -1    0    0    0    0  0.00000000000E+00  0.00000000000E+00  0.58283874287E+01  0.58283874287E+01  0.00000000000E+00 0.  1.
         22   -1    0    0    0    0 -0.00000000000E+00 -0.00000000000E+00 -0.35445520259E+02  0.35445520259E+02  0.00000000000E+00 0. -1.
          2    1    1    2  501    0 -0.26169788148E+01 -0.14148175130E+01  0.53815070174E+01  0.61490577321E+01  0.25500000000E-02 0.  1.
         -2    1    1    2    0  501  0.26169788148E+01  0.14148175130E+01 -0.34998639848E+02  0.35124849956E+02  0.25500000000E-02 0. -1.
<mgrwt>
<rscale>  0 0.29749442E+01</rscale>
<asrwt>0</asrwt>
<pdfrwt beam="1">0</pdfrwt>
<pdfrwt beam="2">0</pdfrwt>
<totfact> 0.42222509E+10</totfact>
</mgrwt>
</event>
<event>
 4    1  0.3281603E+006  0.2101377E+01  0.7546771E-02  0.2915503E+00
         22   -1    0    0    0    0  0.00000000000E+00  0.00000000000E+00  0.33526666034E+01  0.33526666034E+01  0.00000000000E+00 0. -1.
         22   -1    0    0    0    0 -0.00000000000E+00 -0.00000000000E+00 -0.16680404559E+01  0.16680404559E+01  0.00000000000E+00 0.  1.
          2    1    1    2  501    0  0.95718199013E+00  0.18707172865E+01  0.19937766079E+01  0.28967105815E+01  0.25500000000E-02 0. -1.
         -2    1    1    2    0  501 -0.95718199013E+00 -0.18707172865E+01 -0.30915046036E+00  0.21239964778E+01  0.25500000000E-02 0.  1.
<mgrwt>
<rscale>  0 0.21013774E+01</rscale>
<asrwt>0</asrwt>
<pdfrwt beam="1">0</pdfrwt>
<pdfrwt beam="2">0</pdfrwt>
<totfact> 0.32375849E+12</totfact>
</mgrwt>
</event>
<event>
 4    1  0.3281603E+006  0.2284131E+01  0.7546771E-02  0.2812096E+00
         22   -1    0    0    0    0  0.00000000000E+00  0.00000000000E+00  0.26555446529E+00  0.26555446529E+00  0.00000000000E+00 0.  1.
         22   -1    0    0    0    0 -0.00000000000E+00 -0.00000000000E+00 -0.20531118780E+02  0.20531118780E+02  0.00000000000E+00 0. -1.
          2    1    1    2  501    0  0.18487160261E+01  0.13414527067E+01 -0.79745337498E+01  0.82952059250E+01  0.25500000000E-02 0. -1.
         -2    1    1    2    0  501 -0.18487160261E+01 -0.13414527067E+01 -0.12291030565E+02  0.12501467321E+02  0.25500000000E-02 0.  1.
<mgrwt>
<rscale>  0 0.22841306E+01</rscale>
<asrwt>0</asrwt>
<pdfrwt beam="1">0</pdfrwt>
<pdfrwt beam="2">0</pdfrwt>
<totfact> 0.29335120E+12</totfact>
</mgrwt>
</event>
<event>
 4    1  0.3281603E+006  0.3812902E+01  0.7546771E-02  0.2314552E+00
         22   -1    0    0    0    0  0.00000000000E+00  0.00000000000E+00  0.14972973903E+01  0.14972973903E+01  0.00000000000E+00 0.  1.
         22   -1    0    0    0    0 -0.00000000000E+00 -0.00000000000E+00 -0.10103547110E+02  0.10103547110E+02  0.00000000000E+00 0. -1.
          2    1    1    2  501    0 -0.84904835534E-01 -0.38119556064E+01 -0.31578261872E+01  0.49507663151E+01  0.25500000000E-02 0.  1.
         -2    1    1    2    0  501  0.84904835534E-01  0.38119556064E+01 -0.54484235326E+01  0.66500781852E+01  0.25500000000E-02 0. -1.
<mgrwt>
<rscale>  0 0.38129019E+01</rscale>
<asrwt>0</asrwt>
<pdfrwt beam="1">0</pdfrwt>
<pdfrwt beam="2">0</pdfrwt>
<totfact> 0.98668328E+11</totfact>
</mgrwt>
</event>
<event>
 4    1  0.3281603E+006  0.3739237E+01  0.7546771E-02  0.2330095E+00
         22   -1    0    0    0    0  0.00000000000E+00  0.00000000000E+00  0.23685885460E+01  0.23685885460E+01  0.00000000000E+00 0.  1.
         22   -1    0    0    0    0 -0.00000000000E+00 -0.00000000000E+00 -0.62070096078E+01  0.62070096078E+01  0.00000000000E+00 0. -1.
          2    1    1    2  501    0 -0.30984909045E+01 -0.20931418219E+01 -0.97035166376E+00  0.38630916927E+01  0.25500000000E-02 0. -1.
         -2    1    1    2    0  501  0.30984909045E+01  0.20931418219E+01 -0.28680693981E+01  0.47125064612E+01  0.25500000000E-02 0.  1.
<mgrwt>
<rscale>  0 0.37392372E+01</rscale>
<asrwt>0</asrwt>
<pdfrwt beam="1">0</pdfrwt>
<pdfrwt beam="2">0</pdfrwt>
<totfact> 0.10424914E+12</totfact>
</mgrwt>
</event>
<event>
 4    1  0.3281603E+006  0.2935021E+01  0.7546771E-02  0.2543121E+00
         22   -1    0    0    0    0  0.00000000000E+00  0.00000000000E+00  0.56702686846E+00  0.56702686846E+00  0.00000000000E+00 0.  1.
         22   -1    0    0    0    0 -0.00000000000E+00 -0.00000000000E+00 -0.22068621673E+02  0.22068621673E+02  0.00000000000E+00 0. -1.
          2    1    1    2  501    0  0.12076850018E+01 -0.26750403333E+01 -0.44331038728E+01  0.53166493488E+01  0.25500000000E-02 0.  1.
         -2    1    1    2    0  501 -0.12076850018E+01  0.26750403333E+01 -0.17068490932E+02  0.17318999193E+02  0.25500000000E-02 0. -1.
<mgrwt>
<rscale>  0 0.29350214E+01</rscale>
<asrwt>0</asrwt>
<pdfrwt beam="1">0</pdfrwt>
<pdfrwt beam="2">0</pdfrwt>
<totfact> 0.11414859E+12</totfact>
</mgrwt>
</event>
<event>
 4    1  0.3281603E+006  0.2427809E+01  0.7546771E-02  0.2741238E+00
         22   -1    0    0    0    0  0.00000000000E+00  0.00000000000E+00  0.10207512133E+01  0.10207512133E+01  0.00000000000E+00 0. -1.
         22   -1    0    0    0    0 -0.00000000000E+00 -0.00000000000E+00 -0.87263037422E+01  0.87263037422E+01  0.00000000000E+00 0.  1.
          2    1    1    2  501    0 -0.10436868032E+00  0.24255631287E+01 -0.10182715130E+01  0.26327044440E+01  0.25500000000E-02 0. -1.
         -2    1    1    2    0  501  0.10436868032E+00 -0.24255631287E+01 -0.66872810159E+01  0.71143505115E+01  0.25500000000E-02 0.  1.
<mgrwt>
<rscale>  0 0.24278089E+01</rscale>
<asrwt>0</asrwt>
<pdfrwt beam="1">0</pdfrwt>
<pdfrwt beam="2">0</pdfrwt>
<totfact> 0.18272638E+12</totfact>
</mgrwt>
</event>
<event>
 4    1  0.3281603E+006  0.2078286E+01  0.7546771E-02  0.2929814E+00
         22   -1    0    0    0    0  0.00000000000E+00  0.00000000000E+00  0.19686185488E+02  0.19686185488E+02  0.00000000000E+00 0. -1.
         22   -1    0    0    0    0 -0.00000000000E+00 -0.00000000000E+00 -0.34351904361E+00  0.34351904361E+00  0.00000000000E+00 0.  1.
          2    1    1    2  501    0  0.19513329899E+01 -0.71523802522E+00  0.15691068491E+02  0.15828104838E+02  0.25500000000E-02 0. -1.
         -2    1    1    2    0  501 -0.19513329899E+01  0.71523802522E+00  0.36515979536E+01  0.42015996938E+01  0.25500000000E-02 0.  1.
<mgrwt>
<rscale>  0 0.20782859E+01</rscale>
<asrwt>0</asrwt>
<pdfrwt beam="1">0</pdfrwt>
<pdfrwt beam="2">0</pdfrwt>
<totfact> 0.23161536E+12</totfact>
</mgrwt>
</event>
<event>
 4    1  0.3281603E+006  0.2645879E+01  0.7546771E-02  0.2647513E+00
         22   -1    0    0    0    0  0.00000000000E+00  0.00000000000E+00  0.15113414232E+01  0.15113414232E+01  0.00000000000E+00 0.  1.
         22   -1    0    0    0    0 -0.00000000000E+00 -0.00000000000E+00 -0.59642724912E+01  0.59642724912E+01  0.00000000000E+00 0. -1.
          2    1    1    2  501    0  0.13522180882E+01 -0.22742422087E+01 -0.45994339228E+00  0.26855587516E+01  0.25500000000E-02 0. -1.
         -2    1    1    2    0  501 -0.13522180882E+01  0.22742422087E+01 -0.39929876758E+01  0.47900551628E+01  0.25500000000E-02 0.  1.
<mgrwt>
<rscale>  0 0.26458794E+01</rscale>
<asrwt>0</asrwt>
<pdfrwt beam="1">0</pdfrwt>
<pdfrwt beam="2">0</pdfrwt>
<totfact> 0.18377783E+12</totfact>
</mgrwt>
</event>
<event>
 4    1  0.3281603E+006  0.2163914E+01  0.7546771E-02  0.2878230E+00
         22   -1    0    0    0    0  0.00000000000E+00  0.00000000000E+00  0.44475921972E+01  0.44475921972E+01  0.00000000000E+00 0.  1.
         22   -1    0    0    0    0 -0.00000000000E+00 -0.00000000000E+00 -0.25242079623E+01  0.25242079623E+01  0.00000000000E+00 0. -1.
          2    1    1    2  501    0 -0.20420384403E+01 -0.71595777031E+00  0.36231259207E+01  0.42201379670E+01  0.25500000000E-02 0.  1.
         -2    1    1    2    0  501  0.20420384403E+01  0.71595777031E+00 -0.16997416857E+01  0.27516621925E+01  0.25500000000E-02 0. -1.
<mgrwt>
<rscale>  0 0.21639138E+01</rscale>
<asrwt>0</asrwt>
<pdfrwt beam="1">0</pdfrwt>
<pdfrwt beam="2">0</pdfrwt>
<totfact> 0.14373320E+12</totfact>
</mgrwt>
</event>
<event>
 4    1  0.3281603E+006  0.2135861E+01  0.7546771E-02  0.2894689E+00
         22   -1    0    0    0    0  0.00000000000E+00  0.00000000000E+00  0.36566002661E+00  0.36566002661E+00  0.00000000000E+00 0.  1.
         22   -1    0    0    0    0 -0.00000000000E+00 -0.00000000000E+00 -0.26243069141E+02  0.26243069141E+02  0.00000000000E+00 0. -1.
          2    1    1    2  501    0 -0.44841377574E+00 -0.20882577264E+01 -0.33023957345E+01  0.39329021518E+01  0.25500000000E-02 0.  1.
         -2    1    1    2    0  501  0.44841377574E+00  0.20882577264E+01 -0.22575013380E+02  0.22675827016E+02  0.25500000000E-02 0. -1.
<mgrwt>
<rscale>  0 0.21358609E+01</rscale>
<asrwt>0</asrwt>
<pdfrwt beam="1">0</pdfrwt>
<pdfrwt beam="2">0</pdfrwt>
<totfact> 0.15051579E+12</totfact>
</mgrwt>
</event>
<event>
 4    1  0.3281603E+006  0.3208990E+01  0.7546771E-02  0.2459996E+00
         22   -1    0    0    0    0  0.00000000000E+00  0.00000000000E+00  0.53378678151E+01  0.53378678151E+01  0.00000000000E+00 0.  1.
         22   -1    0    0    0    0 -0.00000000000E+00 -0.00000000000E+00 -0.31311282757E+01  0.31311282757E+01  0.00000000000E+00 0. -1.
          2    1    1    2  501    0 -0.32089877815E+01 -0.25337642055E-02  0.37269691577E+01  0.49181210443E+01  0.25500000000E-02 0.  1.
         -2    1    1    2    0  501  0.32089877815E+01  0.25337642055E-02 -0.15202296183E+01  0.35508750466E+01  0.25500000000E-02 0. -1.
<mgrwt>
<rscale>  0 0.32089898E+01</rscale>
<asrwt>0</asrwt>
<pdfrwt beam="1">0</pdfrwt>
<pdfrwt beam="2">0</pdfrwt>
<totfact> 0.90092150E+11</totfact>
</mgrwt>
</event>
<event>
 4    1  0.3281603E+006  0.4327412E+01  0.7546771E-02  0.2218761E+00
         22   -1    0    0    0    0  0.00000000000E+00  0.00000000000E+00  0.55871801568E+01  0.55871801568E+01  0.00000000000E+00 0. -1.
         22   -1    0    0    0    0 -0.00000000000E+00 -0.00000000000E+00 -0.36825062195E+01  0.36825062195E+01  0.00000000000E+00 0.  1.
          2    1    1    2  501    0 -0.37425456780E+01  0.21725191124E+01 -0.43683791404E+00  0.43494047077E+01  0.25500000000E-02 0.  1.
         -2    1    1    2    0  501  0.37425456780E+01 -0.21725191124E+01  0.23415118514E+01  0.49202816686E+01  0.25500000000E-02 0. -1.
<mgrwt>
<rscale>  0 0.43274119E+01</rscale>
<asrwt>0</asrwt>
<pdfrwt beam="1">0</pdfrwt>
<pdfrwt beam="2">0</pdfrwt>
<totfact> 0.70568833E+11</totfact>
</mgrwt>
</event>
<event>
 4    1  0.3281603E+006  0.3074449E+01  0.7546771E-02  0.2499165E+00
         22   -1    0    0    0    0  0.00000000000E+00  0.00000000000E+00  0.71043012083E+00  0.71043012083E+00  0.00000000000E+00 0. -1.
         22   -1    0    0    0    0 -0.00000000000E+00 -0.00000000000E+00 -0.51301842646E+02  0.51301842646E+02  0.00000000000E+00 0.  1.
          2    1    1    2  501    0  0.63562848641E-01  0.30737907147E+01 -0.29145044281E+01  0.42363394762E+01  0.25500000000E-02 0. -1.
         -2    1    1    2    0  501 -0.63562848641E-01 -0.30737907147E+01 -0.47676908097E+02  0.47775933290E+02  0.25500000000E-02 0.  1.
<mgrwt>
<rscale>  0 0.30744489E+01</rscale>
<asrwt>0</asrwt>
<pdfrwt beam="1">0</pdfrwt>
<pdfrwt beam="2">0</pdfrwt>
<totfact> 0.29913112E+11</totfact>
</mgrwt>
</event>
<event>
 4    1  0.3281603E+006  0.2011779E+01  0.7546771E-02  0.2972820E+00
         22   -1    0    0    0    0  0.00000000000E+00  0.00000000000E+00  0.14390037822E+01  0.14390037822E+01  0.00000000000E+00 0. -1.
         22   -1    0    0    0    0 -0.00000000000E+00 -0.00000000000E+00 -0.78663566947E+01  0.78663566947E+01  0.00000000000E+00 0.  1.
          2    1    1    2  501    0 -0.16718604069E+01 -0.11189870527E+01  0.51561331375E+00  0.20768035140E+01  0.25500000000E-02 0. -1.
         -2    1    1    2    0  501  0.16718604069E+01  0.11189870527E+01 -0.69429662262E+01  0.72285569628E+01  0.25500000000E-02 0.  1.
<mgrwt>
<rscale>  0 0.20117792E+01</rscale>
<asrwt>0</asrwt>
<pdfrwt beam="1">0</pdfrwt>
<pdfrwt beam="2">0</pdfrwt>
<totfact> 0.13965171E+12</totfact>
</mgrwt>
</event>
<event>
 4    1  0.3281603E+006  0.2454024E+01  0.7546771E-02  0.2729153E+00
         22   -1    0    0    0    0  0.00000000000E+00  0.00000000000E+00  0.25946690874E+00  0.25946690874E+00  0.00000000000E+00 0. -1.
         22   -1    0    0    0    0 -0.00000000000E+00 -0.00000000000E+00 -0.33850060632E+02  0.33850060632E+02  0.00000000000E+00 0.  1.
          2    1    1    2  501    0 -0.16037798896E+01 -0.18574492125E+01 -0.72335447878E+01  0.76384818001E+01  0.25500000000E-02 0.  1.
         -2    1    1    2    0  501  0.16037798896E+01  0.18574492125E+01 -0.26357048935E+02  0.26471045740E+02  0.25500000000E-02 0. -1.
<mgrwt>
<rscale>  0 0.24540240E+01</rscale>
<asrwt>0</asrwt>
<pdfrwt beam="1">0</pdfrwt>
<pdfrwt beam="2">0</pdfrwt>
<totfact> 0.15991513E+12</totfact>
</mgrwt>
</event>
<event>
 4    1  0.3281603E+006  0.2677745E+01  0.7546771E-02  0.2635002E+00
         22   -1    0    0    0    0  0.00000000000E+00  0.00000000000E+00  0.35628218104E+01  0.35628218104E+01  0.00000000000E+00 0.  1.
         22   -1    0    0    0    0 -0.00000000000E+00 -0.00000000000E+00 -0.23615299970E+01  0.23615299970E+01  0.00000000000E+00 0. -1.
          2    1    1    2  501    0  0.17562523721E+01  0.20213582220E+01 -0.53808524914E+00  0.27312732734E+01  0.25500000000E-02 0. -1.
         -2    1    1    2    0  501 -0.17562523721E+01 -0.20213582220E+01  0.17393770625E+01  0.31930785340E+01  0.25500000000E-02 0.  1.
<mgrwt>
<rscale>  0 0.26777449E+01</rscale>
<asrwt>0</asrwt>
<pdfrwt beam="1">0</pdfrwt>
<pdfrwt beam="2">0</pdfrwt>
<totfact> 0.20163311E+12</totfact>
</mgrwt>
</event>
<event>
 4    1  0.3281603E+006  0.2558954E+01  0.7546771E-02  0.2683096E+00
         22   -1    0    0    0    0  0.00000000000E+00  0.00000000000E+00  0.67632820941E+01  0.67632820941E+01  0.00000000000E+00 0.  1.
         22   -1    0    0    0    0 -0.00000000000E+00 -0.00000000000E+00 -0.17943791118E+01  0.17943791118E+01  0.00000000000E+00 0. -1.
          2    1    1    2  501    0 -0.25263526549E+01 -0.40716000443E+00  0.53878308377E+01  0.59646428765E+01  0.25500000000E-02 0.  1.
         -2    1    1    2    0  501  0.25263526549E+01  0.40716000443E+00 -0.41892785532E+00  0.25930183294E+01  0.25500000000E-02 0. -1.
<mgrwt>
<rscale>  0 0.25589536E+01</rscale>
<asrwt>0</asrwt>
<pdfrwt beam="1">0</pdfrwt>
<pdfrwt beam="2">0</pdfrwt>
<totfact> 0.12978940E+12</totfact>
</mgrwt>
</event>
<event>
 4    1  0.3281603E+006  0.2894307E+01  0.7546771E-02  0.2556673E+00
         22   -1    0    0    0    0  0.00000000000E+00  0.00000000000E+00  0.55852307599E+01  0.55852307599E+01  0.00000000000E+00 0. -1.
         22   -1    0    0    0    0 -0.00000000000E+00 -0.00000000000E+00 -0.22444954222E+01  0.22444954222E+01  0.00000000000E+00 0.  1.
          2    1    1    2  501    0  0.25875446508E+01 -0.12967725686E+01  0.39252907941E+01  0.48769786482E+01  0.25500000000E-02 0. -1.
         -2    1    1    2    0  501 -0.25875446508E+01  0.12967725686E+01 -0.58455545634E+00  0.29527475338E+01  0.25500000000E-02 0.  1.
<mgrwt>
<rscale>  0 0.28943070E+01</rscale>
<asrwt>0</asrwt>
<pdfrwt beam="1">0</pdfrwt>
<pdfrwt beam="2">0</pdfrwt>
<totfact> 0.12581762E+12</totfact>
</mgrwt>
</event>
<event>
 4    1  0.3281603E+006  0.2269835E+01  0.7546771E-02  0.2819610E+00
         22   -1    0    0    0    0  0.00000000000E+00  0.00000000000E+00  0.40188249468E+02  0.40188249468E+02  0.00000000000E+00 0.  1.
         22   -1    0    0    0    0 -0.00000000000E+00 -0.00000000000E+00 -0.19006815192E+00  0.19006815192E+00  0.00000000000E+00 0. -1.
          2    1    1    2  501    0 -0.12952866055E+01  0.18639677046E+01  0.31517585442E+02  0.31599214255E+02  0.25500000000E-02 0.  1.
         -2    1    1    2    0  501  0.12952866055E+01 -0.18639677046E+01  0.84805958743E+01  0.87791033642E+01  0.25500000000E-02 0. -1.
<mgrwt>
<rscale>  0 0.22698347E+01</rscale>
<asrwt>0</asrwt>
<pdfrwt beam="1">0</pdfrwt>
<pdfrwt beam="2">0</pdfrwt>
<totfact> 0.18140141E+12</totfact>
</mgrwt>
</event>
<event>
 4    1  0.3281603E+006  0.2787225E+01  0.7546771E-02  0.2594019E+00
         22   -1    0    0    0    0  0.00000000000E+00  0.00000000000E+00  0.21858076478E+01  0.21858076478E+01  0.00000000000E+00 0. -1.
         22   -1    0    0    0    0 -0.00000000000E+00 -0.00000000000E+00 -0.35567413314E+01  0.35567413314E+01  0.00000000000E+00 0.  1.
          2    1    1    2  501    0  0.21150188046E+01  0.18153001172E+01 -0.76339603456E+00  0.28898787289E+01  0.25500000000E-02 0. -1.
         -2    1    1    2    0  501 -0.21150188046E+01 -0.18153001172E+01 -0.60753764909E+00  0.28526702503E+01  0.25500000000E-02 0.  1.
<mgrwt>
<rscale>  0 0.27872254E+01</rscale>
<asrwt>0</asrwt>
<pdfrwt beam="1">0</pdfrwt>
<pdfrwt beam="2">0</pdfrwt>
<totfact> 0.22100975E+12</totfact>
</mgrwt>
</event>
<event>
 4    1  0.3281603E+006  0.2206687E+01  0.7546771E-02  0.2853910E+00
         22   -1    0    0    0    0  0.00000000000E+00  0.00000000000E+00  0.10687250130E+02  0.10687250130E+02  0.00000000000E+00 0. -1.
         22   -1    0    0    0    0 -0.00000000000E+00 -0.00000000000E+00 -0.94391652096E+00  0.94391652096E+00  0.00000000000E+00 0.  1.
          2    1    1    2  501    0  0.64274218641E+00  0.21110051848E+01  0.90544214951E+01  0.93194428762E+01  0.25500000000E-02 0. -1.
         -2    1    1    2    0  501 -0.64274218641E+00 -0.21110051848E+01  0.68891211415E+00  0.23117237750E+01  0.25500000000E-02 0.  1.
<mgrwt>
<rscale>  0 0.22066869E+01</rscale>
<asrwt>0</asrwt>
<pdfrwt beam="1">0</pdfrwt>
<pdfrwt beam="2">0</pdfrwt>
<totfact> 0.15635642E+12</totfact>
</mgrwt>
</event>
<event>
 4    1  0.3281603E+006  0.2047960E+01  0.7546771E-02  0.2949086E+00
         22   -1    0    0    0    0  0.00000000000E+00  0.00000000000E+00  0.17588093749E+02  0.17588093749E+02  0.00000000000E+00 0.  1.
         22   -1    0    0    0    0 -0.00000000000E+00 -0.00000000000E+00 -0.40805659206E+00  0.40805659206E+00  0.00000000000E+00 0. -1.
          2    1    1    2  501    0 -0.14169685850E+01 -0.14786260112E+01  0.14390871117E+02  0.14535862990E+02  0.25500000000E-02 0.  1.
         -2    1    1    2    0  501  0.14169685850E+01  0.14786260112E+01  0.27891660400E+01  0.34602873512E+01  0.25500000000E-02 0. -1.
<mgrwt>
<rscale>  0 0.20479603E+01</rscale>
<asrwt>0</asrwt>
<pdfrwt beam="1">0</pdfrwt>
<pdfrwt beam="2">0</pdfrwt>
<totfact> 0.21953216E+12</totfact>
</mgrwt>
</event>
<event>
 4    1  0.3281603E+006  0.2378060E+01  0.7546771E-02  0.2764859E+00
         22   -1    0    0    0    0  0.00000000000E+00  0.00000000000E+00  0.14399638703E+02  0.14399638703E+02  0.00000000000E+00 0.  1.
         22   -1    0    0    0    0 -0.00000000000E+00 -0.00000000000E+00 -0.40262197478E+00  0.40262197478E+00  0.00000000000E+00 0. -1.
          2    1    1    2  501    0  0.13820336925E+01 -0.19352384483E+01  0.58384262753E+01  0.63041567917E+01  0.25500000000E-02 0. -1.
         -2    1    1    2    0  501 -0.13820336925E+01  0.19352384483E+01  0.81585904530E+01  0.84981038863E+01  0.25500000000E-02 0.  1.
<mgrwt>
<rscale>  0 0.23780604E+01</rscale>
<asrwt>0</asrwt>
<pdfrwt beam="1">0</pdfrwt>
<pdfrwt beam="2">0</pdfrwt>
<totfact> 0.28527671E+12</totfact>
</mgrwt>
</event>
<event>
 4    1  0.3281603E+006  0.2339935E+01  0.7546771E-02  0.2783600E+00
         22   -1    0    0    0    0  0.00000000000E+00  0.00000000000E+00  0.20372593674E+02  0.20372593674E+02  0.00000000000E+00 0.  1.
         22   -1    0    0    0    0 -0.00000000000E+00 -0.00000000000E+00 -0.27857381838E+00  0.27857381838E+00  0.00000000000E+00 0. -1.
          2    1    1    2  501    0  0.68411121830E+00 -0.22376956769E+01  0.11985255176E+02  0.12211537096E+02  0.25500000000E-02 0.  1.
         -2    1    1    2    0  501 -0.68411121830E+00  0.22376956769E+01  0.81087646791E+01  0.84396303963E+01  0.25500000000E-02 0. -1.
<mgrwt>
<rscale>  0 0.23399352E+01</rscale>
<asrwt>0</asrwt>
<pdfrwt beam="1">0</pdfrwt>
<pdfrwt beam="2">0</pdfrwt>
<totfact> 0.28074813E+12</totfact>
</mgrwt>
</event>
<event>
 4    1  0.3281603E+006  0.2245795E+01  0.7546771E-02  0.2832451E+00
         22   -1    0    0    0    0  0.00000000000E+00  0.00000000000E+00  0.12028411359E+02  0.12028411359E+02  0.00000000000E+00 0. -1.
         22   -1    0    0    0    0 -0.00000000000E+00 -0.00000000000E+00 -0.16701158225E+01  0.16701158225E+01  0.00000000000E+00 0.  1.
          2    1    1    2  501    0  0.21690379582E+01  0.58211783597E+00  0.11106573305E+02  0.11331353137E+02  0.25500000000E-02 0. -1.
         -2    1    1    2    0  501 -0.21690379582E+01 -0.58211783597E+00 -0.74827776771E+00  0.23671740450E+01  0.25500000000E-02 0.  1.
<mgrwt>
<rscale>  0 0.22457946E+01</rscale>
<asrwt>0</asrwt>
<pdfrwt beam="1">0</pdfrwt>
<pdfrwt beam="2">0</pdfrwt>
<totfact> 0.70382532E+11</totfact>
</mgrwt>
</event>
<event>
 4    1  0.3281603E+006  0.3748530E+01  0.7546771E-02  0.2328105E+00
         22   -1    0    0    0    0  0.00000000000E+00  0.00000000000E+00  0.40366158729E+02  0.40366158729E+02  0.00000000000E+00 0.  1.
         22   -1    0    0    0    0 -0.00000000000E+00 -0.00000000000E+00 -0.90945930662E+00  0.90945930662E+00  0.00000000000E+00 0. -1.
          2    1    1    2  501    0  0.31058614120E+01  0.20988316331E+01  0.35942427931E+02  0.36137371257E+02  0.25500000000E-02 0.  1.
         -2    1    1    2    0  501 -0.31058614120E+01 -0.20988316331E+01  0.35142714917E+01  0.51382467783E+01  0.25500000000E-02 0. -1.
<mgrwt>
<rscale>  0 0.37485298E+01</rscale>
<asrwt>0</asrwt>
<pdfrwt beam="1">0</pdfrwt>
<pdfrwt beam="2">0</pdfrwt>
<totfact> 0.30917388E+11</totfact>
</mgrwt>
</event>
<event>
 4    1  0.3281603E+006  0.3858500E+01  0.7546771E-02  0.2305187E+00
         22   -1    0    0    0    0  0.00000000000E+00  0.00000000000E+00  0.12077323341E+01  0.12077323341E+01  0.00000000000E+00 0.  1.
         22   -1    0    0    0    0 -0.00000000000E+00 -0.00000000000E+00 -0.12744909798E+02  0.12744909798E+02  0.00000000000E+00 0. -1.
          2    1    1    2  501    0  0.12515142882E+01 -0.36498940064E+01 -0.45056903748E+01  0.59320541575E+01  0.25500000000E-02 0. -1.
         -2    1    1    2    0  501 -0.12515142882E+01  0.36498940064E+01 -0.70314870892E+01  0.80205879747E+01  0.25500000000E-02 0.  1.
<mgrwt>
<rscale>  0 0.38584998E+01</rscale>
<asrwt>0</asrwt>
<pdfrwt beam="1">0</pdfrwt>
<pdfrwt beam="2">0</pdfrwt>
<totfact> 0.95197689E+11</totfact>
</mgrwt>
</event>
<event>
 4    1  0.3281603E+006  0.5709729E+01  0.7546771E-02  0.2046741E+00
         22   -1    0    0    0    0  0.00000000000E+00  0.00000000000E+00  0.16254462888E+01  0.16254462888E+01  0.00000000000E+00 0. -1.
         22   -1    0    0    0    0 -0.00000000000E+00 -0.00000000000E+00 -0.27343660970E+02  0.27343660970E+02  0.00000000000E+00 0.  1.
          2    1    1    2  501    0  0.18584473576E+01  0.53988118399E+01 -0.53816905643E+01  0.78462472365E+01  0.25500000000E-02 0. -1.
         -2    1    1    2    0  501 -0.18584473576E+01 -0.53988118399E+01 -0.20336524117E+02  0.21122860023E+02  0.25500000000E-02 0.  1.
<mgrwt>
<rscale>  0 0.57097287E+01</rscale>
<asrwt>0</asrwt>
<pdfrwt beam="1">0</pdfrwt>
<pdfrwt beam="2">0</pdfrwt>
<totfact> 0.26189647E+11</totfact>
</mgrwt>
</event>
<event>
 4    1  0.3281603E+006  0.2129635E+01  0.7546771E-02  0.2898399E+00
         22   -1    0    0    0    0  0.00000000000E+00  0.00000000000E+00  0.17875632590E+01  0.17875632590E+01  0.00000000000E+00 0. -1.
         22   -1    0    0    0    0 -0.00000000000E+00 -0.00000000000E+00 -0.15914343140E+02  0.15914343140E+02  0.00000000000E+00 0.  1.
          2    1    1    2  501    0  0.20379273620E+01 -0.61821518845E+00  0.10514120460E+01  0.23750393144E+01  0.25500000000E-02 0. -1.
         -2    1    1    2    0  501 -0.20379273620E+01  0.61821518845E+00 -0.15178191927E+02  0.15326867084E+02  0.25500000000E-02 0.  1.
<mgrwt>
<rscale>  0 0.21296348E+01</rscale>
<asrwt>0</asrwt>
<pdfrwt beam="1">0</pdfrwt>
<pdfrwt beam="2">0</pdfrwt>
<totfact> 0.46161463E+11</totfact>
</mgrwt>
</event>
<event>
 4    1  0.3281603E+006  0.3506616E+01  0.7546771E-02  0.2382857E+00
         22   -1    0    0    0    0  0.00000000000E+00  0.00000000000E+00  0.64564509354E+01  0.64564509354E+01  0.00000000000E+00 0. -1.
         22   -1    0    0    0    0 -0.00000000000E+00 -0.00000000000E+00 -0.50645995441E+01  0.50645995441E+01  0.00000000000E+00 0.  1.
          2    1    1    2  501    0  0.57898395633E+00  0.34584861914E+01  0.52462194279E+01  0.63102435726E+01  0.25500000000E-02 0. -1.
         -2    1    1    2    0  501 -0.57898395633E+00 -0.34584861914E+01 -0.38543680365E+01  0.52108069069E+01  0.25500000000E-02 0.  1.
<mgrwt>
<rscale>  0 0.35066160E+01</rscale>
<asrwt>0</asrwt>
<pdfrwt beam="1">0</pdfrwt>
<pdfrwt beam="2">0</pdfrwt>
<totfact> 0.40798639E+11</totfact>
</mgrwt>
</event>
<event>
 4    1  0.3281603E+006  0.2774995E+01  0.7546771E-02  0.2598451E+00
         22   -1    0    0    0    0  0.00000000000E+00  0.00000000000E+00  0.86245320807E+01  0.86245320807E+01  0.00000000000E+00 0.  1.
         22   -1    0    0    0    0 -0.00000000000E+00 -0.00000000000E+00 -0.15891361453E+01  0.15891361453E+01  0.00000000000E+00 0. -1.
          2    1    1    2  501    0 -0.21590598098E+01  0.17432872309E+01  0.68980230607E+01  0.74352752659E+01  0.25500000000E-02 0.  1.
         -2    1    1    2    0  501  0.21590598098E+01 -0.17432872309E+01  0.13737287477E+00  0.27783929601E+01  0.25500000000E-02 0. -1.
<mgrwt>
<rscale>  0 0.27749948E+01</rscale>
<asrwt>0</asrwt>
<pdfrwt beam="1">0</pdfrwt>
<pdfrwt beam="2">0</pdfrwt>
<totfact> 0.11154165E+12</totfact>
</mgrwt>
</event>
<event>
 4    1  0.3281603E+006  0.4339992E+01  0.7546771E-02  0.2216662E+00
         22   -1    0    0    0    0  0.00000000000E+00  0.00000000000E+00  0.20868177211E+02  0.20868177211E+02  0.00000000000E+00 0. -1.
         22   -1    0    0    0    0 -0.00000000000E+00 -0.00000000000E+00 -0.16001150637E+01  0.16001150637E+01  0.00000000000E+00 0.  1.
          2    1    1    2  501    0  0.91341251912E+00  0.42427821033E+01  0.17051275111E+02  0.17594928583E+02  0.25500000000E-02 0. -1.
         -2    1    1    2    0  501 -0.91341251912E+00 -0.42427821033E+01  0.22167870355E+01  0.48733636915E+01  0.25500000000E-02 0.  1.
<mgrwt>
<rscale>  0 0.43399918E+01</rscale>
<asrwt>0</asrwt>
<pdfrwt beam="1">0</pdfrwt>
<pdfrwt beam="2">0</pdfrwt>
<totfact> 0.37470552E+11</totfact>
</mgrwt>
</event>
<event>
 4    1  0.3281603E+006  0.2479693E+01  0.7546771E-02  0.2717551E+00
         22   -1    0    0    0    0  0.00000000000E+00  0.00000000000E+00  0.17160343817E+01  0.17160343817E+01  0.00000000000E+00 0. -1.
         22   -1    0    0    0    0 -0.00000000000E+00 -0.00000000000E+00 -0.36885370593E+01  0.36885370593E+01  0.00000000000E+00 0.  1.
          2    1    1    2  501    0  0.22590759086E+01  0.10224713046E+01 -0.14429339157E+01  0.28689608428E+01  0.25500000000E-02 0. -1.
         -2    1    1    2    0  501 -0.22590759086E+01 -0.10224713046E+01 -0.52956876189E+00  0.25356105982E+01  0.25500000000E-02 0.  1.
<mgrwt>
<rscale>  0 0.24796931E+01</rscale>
<asrwt>0</asrwt>
<pdfrwt beam="1">0</pdfrwt>
<pdfrwt beam="2">0</pdfrwt>
<totfact> 0.28016137E+12</totfact>
</mgrwt>
</event>
<event>
 4    1  0.3281603E+006  0.2097722E+01  0.7546771E-02  0.2917748E+00
         22   -1    0    0    0    0  0.00000000000E+00  0.00000000000E+00  0.13761927836E+03  0.13761927836E+03  0.00000000000E+00 0. -1.
         22   -1    0    0    0    0 -0.00000000000E+00 -0.00000000000E+00 -0.45602046784E-01  0.45602046784E-01  0.00000000000E+00 0.  1.
          2    1    1    2  501    0  0.19659586754E+01  0.73173602690E+00  0.10641342154E+03  0.10643409567E+03  0.25500000000E-02 0. -1.
         -2    1    1    2    0  501 -0.19659586754E+01 -0.73173602690E+00  0.31160254768E+02  0.31230784730E+02  0.25500000000E-02 0.  1.
<mgrwt>
<rscale>  0 0.20977220E+01</rscale>
<asrwt>0</asrwt>
<pdfrwt beam="1">0</pdfrwt>
<pdfrwt beam="2">0</pdfrwt>
<totfact> 0.16288266E+12</totfact>
</mgrwt>
</event>
<event>
 4    1  0.3281603E+006  0.2116893E+01  0.7546771E-02  0.2906057E+00
         22   -1    0    0    0    0  0.00000000000E+00  0.00000000000E+00  0.82228151944E+01  0.82228151944E+01  0.00000000000E+00 0.  1.
         22   -1    0    0    0    0 -0.00000000000E+00 -0.00000000000E+00 -0.10279801044E+01  0.10279801044E+01  0.00000000000E+00 0. -1.
          2    1    1    2  501    0 -0.19869732421E+01 -0.73018337265E+00  0.67679494786E+01  0.70912888158E+01  0.25500000000E-02 0.  1.
         -2    1    1    2    0  501  0.19869732421E+01  0.73018337265E+00  0.42688561134E+00  0.21595064830E+01  0.25500000000E-02 0. -1.
<mgrwt>
<rscale>  0 0.21168932E+01</rscale>
<asrwt>0</asrwt>
<pdfrwt beam="1">0</pdfrwt>
<pdfrwt beam="2">0</pdfrwt>
<totfact> 0.19469088E+12</totfact>
</mgrwt>
</event>
<event>
 4    1  0.3281603E+006  0.2197763E+01  0.7546771E-02  0.2858909E+00
         22   -1    0    0    0    0  0.00000000000E+00  0.00000000000E+00  0.28420821873E+00  0.28420821873E+00  0.00000000000E+00 0. -1.
         22   -1    0    0    0    0 -0.00000000000E+00 -0.00000000000E+00 -0.22490828409E+02  0.22490828409E+02  0.00000000000E+00 0.  1.
          2    1    1    2  501    0 -0.21267916623E+01  0.55399562753E+00 -0.54742337392E+01  0.58989317223E+01  0.25500000000E-02 0. -1.
         -2    1    1    2    0  501  0.21267916623E+01 -0.55399562753E+00 -0.16732386451E+02  0.16876104905E+02  0.25500000000E-02 0.  1.
<mgrwt>
<rscale>  0 0.21977626E+01</rscale>
<asrwt>0</asrwt>
<pdfrwt beam="1">0</pdfrwt>
<pdfrwt beam="2">0</pdfrwt>
<totfact> 0.24255610E+12</totfact>
</mgrwt>
</event>
<event>
 4    1  0.3281603E+006  0.2826455E+01  0.7546771E-02  0.2580040E+00
         22   -1    0    0    0    0  0.00000000000E+00  0.00000000000E+00  0.36555626201E+01  0.36555626201E+01  0.00000000000E+00 0.  1.
         22   -1    0    0    0    0 -0.00000000000E+00 -0.00000000000E+00 -0.21877588871E+01  0.21877588871E+01  0.00000000000E+00 0. -1.
          2    1    1    2  501    0 -0.23297542550E+01  0.16003402636E+01  0.82992838613E+00  0.29457819805E+01  0.25500000000E-02 0. -1.
         -2    1    1    2    0  501  0.23297542550E+01 -0.16003402636E+01  0.63787534681E+00  0.28975395267E+01  0.25500000000E-02 0.  1.
<mgrwt>
<rscale>  0 0.28264554E+01</rscale>
<asrwt>0</asrwt>
<pdfrwt beam="1">0</pdfrwt>
<pdfrwt beam="2">0</pdfrwt>
<totfact> 0.21379371E+12</totfact>
</mgrwt>
</event>
<event>
 4    1  0.3281603E+006  0.2582993E+01  0.7546771E-02  0.2673034E+00
         22   -1    0    0    0    0  0.00000000000E+00  0.00000000000E+00  0.16451556475E+01  0.16451556475E+01  0.00000000000E+00 0. -1.
         22   -1    0    0    0    0 -0.00000000000E+00 -0.00000000000E+00 -0.52340151948E+01  0.52340151948E+01  0.00000000000E+00 0.  1.
          2    1    1    2  501    0 -0.36643561655E+00 -0.25568676496E+01 -0.16226274147E+00  0.25880848013E+01  0.25500000000E-02 0. -1.
         -2    1    1    2    0  501  0.36643561655E+00  0.25568676496E+01 -0.34265968059E+01  0.42910860410E+01  0.25500000000E-02 0.  1.
<mgrwt>
<rscale>  0 0.25829932E+01</rscale>
<asrwt>0</asrwt>
<pdfrwt beam="1">0</pdfrwt>
<pdfrwt beam="2">0</pdfrwt>
<totfact> 0.19464036E+12</totfact>
</mgrwt>
</event>
<event>
 4    1  0.3281603E+006  0.3471300E+01  0.7546771E-02  0.2391402E+00
         22   -1    0    0    0    0  0.00000000000E+00  0.00000000000E+00  0.21905674579E+01  0.21905674579E+01  0.00000000000E+00 0.  1.
         22   -1    0    0    0    0 -0.00000000000E+00 -0.00000000000E+00 -0.12167926539E+02  0.12167926539E+02  0.00000000000E+00 0. -1.
          2    1    1    2  501    0 -0.34460649770E+01  0.41779698669E+00  0.32553635079E+00  0.34865310218E+01  0.25500000000E-02 0.  1.
         -2    1    1    2    0  501  0.34460649770E+01 -0.41779698669E+00 -0.10302895432E+02  0.10871962975E+02  0.25500000000E-02 0. -1.
<mgrwt>
<rscale>  0 0.34713001E+01</rscale>
<asrwt>0</asrwt>
<pdfrwt beam="1">0</pdfrwt>
<pdfrwt beam="2">0</pdfrwt>
<totfact> 0.50716659E+11</totfact>
</mgrwt>
</event>
<event>
 4    1  0.3281603E+006  0.2076577E+01  0.7546771E-02  0.2930886E+00
         22   -1    0    0    0    0  0.00000000000E+00  0.00000000000E+00  0.14405392124E+02  0.14405392124E+02  0.00000000000E+00 0. -1.
         22   -1    0    0    0    0 -0.00000000000E+00 -0.00000000000E+00 -0.95136394977E+00  0.95136394977E+00  0.00000000000E+00 0.  1.
          2    1    1    2  501    0 -0.11233887889E+01  0.17464710729E+01  0.13083638214E+02  0.13247405746E+02  0.25500000000E-02 0. -1.
         -2    1    1    2    0  501  0.11233887889E+01 -0.17464710729E+01  0.37038995990E+00  0.21093503275E+01  0.25500000000E-02 0.  1.
<mgrwt>
<rscale>  0 0.20765765E+01</rscale>
<asrwt>0</asrwt>
<pdfrwt beam="1">0</pdfrwt>
<pdfrwt beam="2">0</pdfrwt>
<totfact> 0.10761877E+12</totfact>
</mgrwt>
</event>
<event>
 4    1  0.3281603E+006  0.3320118E+01  0.7546771E-02  0.2429773E+00
         22   -1    0    0    0    0  0.00000000000E+00  0.00000000000E+00  0.19411784397E+01  0.19411784397E+01  0.00000000000E+00 0. -1.
         22   -1    0    0    0    0 -0.00000000000E+00 -0.00000000000E+00 -0.59433730155E+01  0.59433730155E+01  0.00000000000E+00 0.  1.
          2    1    1    2  501    0 -0.31473905290E+01 -0.10569332137E+01 -0.11690174333E+01  0.35199123884E+01  0.25500000000E-02 0.  1.
         -2    1    1    2    0  501  0.31473905290E+01  0.10569332137E+01 -0.28331771425E+01  0.43646390668E+01  0.25500000000E-02 0. -1.
<mgrwt>
<rscale>  0 0.33201177E+01</rscale>
<asrwt>0</asrwt>
<pdfrwt beam="1">0</pdfrwt>
<pdfrwt beam="2">0</pdfrwt>
<totfact> 0.13826165E+12</totfact>
</mgrwt>
</event>
<event>
 4    1  0.3281603E+006  0.2786773E+01  0.7546771E-02  0.2594183E+00
         22   -1    0    0    0    0  0.00000000000E+00  0.00000000000E+00  0.90187536795E+00  0.90187536795E+00  0.00000000000E+00 0.  1.
         22   -1    0    0    0    0 -0.00000000000E+00 -0.00000000000E+00 -0.88148367441E+01  0.88148367441E+01  0.00000000000E+00 0. -1.
          2    1    1    2  501    0 -0.82076565978E+00 -0.26631632855E+01 -0.32177923784E+01  0.42567933056E+01  0.25500000000E-02 0.  1.
         -2    1    1    2    0  501  0.82076565978E+00  0.26631632855E+01 -0.46951689978E+01  0.54599188065E+01  0.25500000000E-02 0. -1.
<mgrwt>
<rscale>  0 0.27867726E+01</rscale>
<asrwt>0</asrwt>
<pdfrwt beam="1">0</pdfrwt>
<pdfrwt beam="2">0</pdfrwt>
<totfact> 0.20791694E+12</totfact>
</mgrwt>
</event>
<event>
 4    1  0.3281603E+006  0.2281690E+01  0.7546771E-02  0.2813372E+00
         22   -1    0    0    0    0  0.00000000000E+00  0.00000000000E+00  0.37388038599E+00  0.37388038599E+00  0.00000000000E+00 0. -1.
         22   -1    0    0    0    0 -0.00000000000E+00 -0.00000000000E+00 -0.14030721681E+02  0.14030721681E+02  0.00000000000E+00 0.  1.
          2    1    1    2  501    0 -0.18131577282E+01  0.13851213774E+01 -0.74550003947E+01  0.77963542483E+01  0.25500000000E-02 0.  1.
         -2    1    1    2    0  501  0.18131577282E+01 -0.13851213774E+01 -0.62018409000E+01  0.66082478184E+01  0.25500000000E-02 0. -1.
<mgrwt>
<rscale>  0 0.22816899E+01</rscale>
<asrwt>0</asrwt>
<pdfrwt beam="1">0</pdfrwt>
<pdfrwt beam="2">0</pdfrwt>
<totfact> 0.32010274E+12</totfact>
</mgrwt>
</event>
<event>
 4    1  0.3281603E+006  0.3080610E+01  0.7546771E-02  0.2497305E+00
         22   -1    0    0    0    0  0.00000000000E+00  0.00000000000E+00  0.10715888991E+01  0.10715888991E+01  0.00000000000E+00 0.  1.
         22   -1    0    0    0    0 -0.00000000000E+00 -0.00000000000E+00 -0.92677644139E+01  0.92677644139E+01  0.00000000000E+00 0. -1.
          2    1    1    2  501    0 -0.22845135431E+01  0.20666756691E+01 -0.30086090395E+01  0.43060289485E+01  0.25500000000E-02 0.  1.
         -2    1    1    2    0  501  0.22845135431E+01 -0.20666756691E+01 -0.51875664753E+01  0.60333243646E+01  0.25500000000E-02 0. -1.
<mgrwt>
<rscale>  0 0.30806098E+01</rscale>
<asrwt>0</asrwt>
<pdfrwt beam="1">0</pdfrwt>
<pdfrwt beam="2">0</pdfrwt>
<totfact> 0.16075046E+12</totfact>
</mgrwt>
</event>
<event>
 4    1  0.3281603E+006  0.2626168E+01  0.7546771E-02  0.2655391E+00
         22   -1    0    0    0    0  0.00000000000E+00  0.00000000000E+00  0.38773137921E+01  0.38773137921E+01  0.00000000000E+00 0. -1.
         22   -1    0    0    0    0 -0.00000000000E+00 -0.00000000000E+00 -0.76343641473E+01  0.76343641473E+01  0.00000000000E+00 0.  1.
          2    1    1    2  501    0  0.12473564017E+01 -0.23110290020E+01  0.31623801783E+01  0.41106456836E+01  0.25500000000E-02 0. -1.
         -2    1    1    2    0  501 -0.12473564017E+01  0.23110290020E+01 -0.69194305336E+01  0.74010322559E+01  0.25500000000E-02 0.  1.
<mgrwt>
<rscale>  0 0.26261682E+01</rscale>
<asrwt>0</asrwt>
<pdfrwt beam="1">0</pdfrwt>
<pdfrwt beam="2">0</pdfrwt>
<totfact> 0.45758746E+11</totfact>
</mgrwt>
</event>
<event>
 4    1  0.3281603E+006  0.2093964E+01  0.7546771E-02  0.2920064E+00
         22   -1    0    0    0    0  0.00000000000E+00  0.00000000000E+00  0.17336184756E+00  0.17336184756E+00  0.00000000000E+00 0.  1.
         22   -1    0    0    0    0 -0.00000000000E+00 -0.00000000000E+00 -0.27656507857E+02  0.27656507857E+02  0.00000000000E+00 0. -1.
          2    1    1    2  501    0 -0.20939603016E+01  0.30642652197E-02 -0.96729873464E+01  0.98970384379E+01  0.25500000000E-02 0.  1.
         -2    1    1    2    0  501  0.20939603016E+01 -0.30642652197E-02 -0.17810158663E+02  0.17932831267E+02  0.25500000000E-02 0. -1.
<mgrwt>
<rscale>  0 0.20939641E+01</rscale>
<asrwt>0</asrwt>
<pdfrwt beam="1">0</pdfrwt>
<pdfrwt beam="2">0</pdfrwt>
<totfact> 0.32459998E+12</totfact>
</mgrwt>
</event>
<event>
 4    1  0.3281603E+006  0.2218703E+01  0.7546771E-02  0.2847239E+00
         22   -1    0    0    0    0  0.00000000000E+00  0.00000000000E+00  0.36121607011E+02  0.36121607011E+02  0.00000000000E+00 0.  1.
         22   -1    0    0    0    0 -0.00000000000E+00 -0.00000000000E+00 -0.20530578514E+00  0.20530578514E+00  0.00000000000E+00 0. -1.
          2    1    1    2  501    0 -0.20536812472E+01  0.83966106904E+00  0.28489992722E+02  0.28576254638E+02  0.25500000000E-02 0.  1.
         -2    1    1    2    0  501  0.20536812472E+01 -0.83966106904E+00  0.74263085044E+01  0.77506581579E+01  0.25500000000E-02 0. -1.
<mgrwt>
<rscale>  0 0.22187032E+01</rscale>
<asrwt>0</asrwt>
<pdfrwt beam="1">0</pdfrwt>
<pdfrwt beam="2">0</pdfrwt>
<totfact> 0.19108022E+12</totfact>
</mgrwt>
</event>
<event>
 4    1  0.3281603E+006  0.3396090E+01  0.7546771E-02  0.2410116E+00
         22   -1    0    0    0    0  0.00000000000E+00  0.00000000000E+00  0.30536934933E+02  0.30536934933E+02  0.00000000000E+00 0.  1.
         22   -1    0    0    0    0 -0.00000000000E+00 -0.00000000000E+00 -0.38414840649E+00  0.38414840649E+00  0.00000000000E+00 0. -1.
          2    1    1    2  501    0  0.66844783770E-01 -0.33954313030E+01  0.17081378022E+02  0.17415708529E+02  0.25500000000E-02 0.  1.
         -2    1    1    2    0  501 -0.66844783770E-01  0.33954313030E+01  0.13071408505E+02  0.13505374811E+02  0.25500000000E-02 0. -1.
<mgrwt>
<rscale>  0 0.33960902E+01</rscale>
<asrwt>0</asrwt>
<pdfrwt beam="1">0</pdfrwt>
<pdfrwt beam="2">0</pdfrwt>
<totfact> 0.11747399E+12</totfact>
</mgrwt>
</event>
<event>
 4    1  0.3281603E+006  0.3775368E+01  0.7546771E-02  0.2322406E+00
         22   -1    0    0    0    0  0.00000000000E+00  0.00000000000E+00  0.67939213387E+01  0.67939213387E+01  0.00000000000E+00 0.  1.
         22   -1    0    0    0    0 -0.00000000000E+00 -0.00000000000E+00 -0.22292210444E+01  0.22292210444E+01  0.00000000000E+00 0. -1.
          2    1    1    2  501    0  0.55783830340E+00 -0.37339275978E+01  0.11876080239E+01  0.39577541863E+01  0.25500000000E-02 0. -1.
         -2    1    1    2    0  501 -0.55783830340E+00  0.37339275978E+01  0.33770922704E+01  0.50653881968E+01  0.25500000000E-02 0.  1.
<mgrwt>
<rscale>  0 0.37753682E+01</rscale>
<asrwt>0</asrwt>
<pdfrwt beam="1">0</pdfrwt>
<pdfrwt beam="2">0</pdfrwt>
<totfact> 0.10042124E+12</totfact>
</mgrwt>
</event>
<event>
 4    1  0.3281603E+006  0.4087142E+01  0.7546771E-02  0.2260940E+00
         22   -1    0    0    0    0  0.00000000000E+00  0.00000000000E+00  0.30458550194E+02  0.30458550194E+02  0.00000000000E+00 0. -1.
         22   -1    0    0    0    0 -0.00000000000E+00 -0.00000000000E+00 -0.88692377021E+00  0.88692377021E+00  0.00000000000E+00 0.  1.
          2    1    1    2  501    0 -0.30849714700E+01 -0.26809837150E+01  0.24467917157E+02  0.24806928450E+02  0.25500000000E-02 0. -1.
         -2    1    1    2    0  501  0.30849714700E+01  0.26809837150E+01  0.51037092668E+01  0.65385455136E+01  0.25500000000E-02 0.  1.
<mgrwt>
<rscale>  0 0.40871419E+01</rscale>
<asrwt>0</asrwt>
<pdfrwt beam="1">0</pdfrwt>
<pdfrwt beam="2">0</pdfrwt>
<totfact> 0.45709670E+11</totfact>
</mgrwt>
</event>
<event>
 4    1  0.3281603E+006  0.2160835E+01  0.7546771E-02  0.2880017E+00
         22   -1    0    0    0    0  0.00000000000E+00  0.00000000000E+00  0.36429804278E+00  0.36429804278E+00  0.00000000000E+00 0.  1.
         22   -1    0    0    0    0 -0.00000000000E+00 -0.00000000000E+00 -0.20877922039E+02  0.20877922039E+02  0.00000000000E+00 0. -1.
          2    1    1    2  501    0  0.15020760531E+01 -0.15533728916E+01 -0.36571945971E+01  0.42478557689E+01  0.25500000000E-02 0.  1.
         -2    1    1    2    0  501 -0.15020760531E+01  0.15533728916E+01 -0.16856429399E+02  0.16994364313E+02  0.25500000000E-02 0. -1.
<mgrwt>
<rscale>  0 0.21608346E+01</rscale>
<asrwt>0</asrwt>
<pdfrwt beam="1">0</pdfrwt>
<pdfrwt beam="2">0</pdfrwt>
<totfact> 0.20149526E+12</totfact>
</mgrwt>
</event>
<event>
 4    1  0.3281603E+006  0.2219984E+01  0.7546771E-02  0.2846533E+00
         22   -1    0    0    0    0  0.00000000000E+00  0.00000000000E+00  0.61698934099E-01  0.61698934099E-01  0.00000000000E+00 0. -1.
         22   -1    0    0    0    0 -0.00000000000E+00 -0.00000000000E+00 -0.83330550299E+02  0.83330550299E+02  0.00000000000E+00 0.  1.
          2    1    1    2  501    0  0.20995916690E+01  0.72113547322E+00 -0.33146059128E+02  0.33220318538E+02  0.25500000000E-02 0.  1.
         -2    1    1    2    0  501 -0.20995916690E+01 -0.72113547322E+00 -0.50122792237E+02  0.50171930695E+02  0.25500000000E-02 0. -1.
<mgrwt>
<rscale>  0 0.22199838E+01</rscale>
<asrwt>0</asrwt>
<pdfrwt beam="1">0</pdfrwt>
<pdfrwt beam="2">0</pdfrwt>
<totfact> 0.23820464E+12</totfact>
</mgrwt>
</event>
<event>
 4    1  0.3281603E+006  0.2522515E+01  0.7546771E-02  0.2698686E+00
         22   -1    0    0    0    0  0.00000000000E+00  0.00000000000E+00  0.54712525860E+02  0.54712525860E+02  0.00000000000E+00 0. -1.
         22   -1    0    0    0    0 -0.00000000000E+00 -0.00000000000E+00 -0.12933804551E+01  0.12933804551E+01  0.00000000000E+00 0.  1.
          2    1    1    2  501    0 -0.25204000399E+01  0.10324487521E+00  0.53423867158E+02  0.53483386808E+02  0.25500000000E-02 0. -1.
         -2    1    1    2    0  501  0.25204000399E+01 -0.10324487521E+00 -0.47217530124E-02  0.25225195070E+01  0.25500000000E-02 0.  1.
<mgrwt>
<rscale>  0 0.25225151E+01</rscale>
<asrwt>0</asrwt>
<pdfrwt beam="1">0</pdfrwt>
<pdfrwt beam="2">0</pdfrwt>
<totfact> 0.13863412E+11</totfact>
</mgrwt>
</event>
<event>
 4    1  0.3281603E+006  0.2777439E+01  0.7546771E-02  0.2597563E+00
         22   -1    0    0    0    0  0.00000000000E+00  0.00000000000E+00  0.61276640911E+01  0.61276640911E+01  0.00000000000E+00 0. -1.
         22   -1    0    0    0    0 -0.00000000000E+00 -0.00000000000E+00 -0.12886654762E+01  0.12886654762E+01  0.00000000000E+00 0.  1.
          2    1    1    2  501    0  0.40678126079E+00 -0.27474874942E+01  0.18560078266E+01  0.33404984778E+01  0.25500000000E-02 0. -1.
         -2    1    1    2    0  501 -0.40678126079E+00  0.27474874942E+01  0.29829907883E+01  0.40758310896E+01  0.25500000000E-02 0.  1.
<mgrwt>
<rscale>  0 0.27774386E+01</rscale>
<asrwt>0</asrwt>
<pdfrwt beam="1">0</pdfrwt>
<pdfrwt beam="2">0</pdfrwt>
<totfact> 0.21372623E+12</totfact>
</mgrwt>
</event>
<event>
 4    1  0.3281603E+006  0.2266913E+01  0.7546771E-02  0.2821156E+00
         22   -1    0    0    0    0  0.00000000000E+00  0.00000000000E+00  0.77761661407E+00  0.77761661407E+00  0.00000000000E+00 0.  1.
         22   -1    0    0    0    0 -0.00000000000E+00 -0.00000000000E+00 -0.66212361020E+01  0.66212361020E+01  0.00000000000E+00 0. -1.
          2    1    1    2  501    0 -0.58137924873E+00  0.21910927214E+01 -0.27596935281E+01  0.35713868478E+01  0.25500000000E-02 0. -1.
         -2    1    1    2    0  501  0.58137924873E+00 -0.21910927214E+01 -0.30839259598E+01  0.38274658682E+01  0.25500000000E-02 0.  1.
<mgrwt>
<rscale>  0 0.22669132E+01</rscale>
<asrwt>0</asrwt>
<pdfrwt beam="1">0</pdfrwt>
<pdfrwt beam="2">0</pdfrwt>
<totfact> 0.34693739E+12</totfact>
</mgrwt>
</event>
<event>
 4    1  0.3281603E+006  0.2344745E+01  0.7546771E-02  0.2781203E+00
         22   -1    0    0    0    0  0.00000000000E+00  0.00000000000E+00  0.11477527795E+01  0.11477527795E+01  0.00000000000E+00 0. -1.
         22   -1    0    0    0    0 -0.00000000000E+00 -0.00000000000E+00 -0.47900912869E+01  0.47900912869E+01  0.00000000000E+00 0.  1.
          2    1    1    2  501    0 -0.22896968769E+01  0.50508712918E+00 -0.18250285810E+01  0.29712893868E+01  0.25500000000E-02 0.  1.
         -2    1    1    2    0  501  0.22896968769E+01 -0.50508712918E+00 -0.18173099263E+01  0.29665546796E+01  0.25500000000E-02 0. -1.
<mgrwt>
<rscale>  0 0.23447455E+01</rscale>
<asrwt>0</asrwt>
<pdfrwt beam="1">0</pdfrwt>
<pdfrwt beam="2">0</pdfrwt>
<totfact> 0.32689545E+12</totfact>
</mgrwt>
</event>
<event>
 4    1  0.3281603E+006  0.3055917E+01  0.7546771E-02  0.2504800E+00
         22   -1    0    0    0    0  0.00000000000E+00  0.00000000000E+00  0.16325924513E+01  0.16325924513E+01  0.00000000000E+00 0. -1.
         22   -1    0    0    0    0 -0.00000000000E+00 -0.00000000000E+00 -0.75204594075E+01  0.75204594075E+01  0.00000000000E+00 0.  1.
          2    1    1    2  501    0  0.29896683451E+01 -0.63285542832E+00 -0.51831216810E+01  0.60169244360E+01  0.25500000000E-02 0.  1.
         -2    1    1    2    0  501 -0.29896683451E+01  0.63285542832E+00 -0.70474527524E+00  0.31361274228E+01  0.25500000000E-02 0. -1.
<mgrwt>
<rscale>  0 0.30559171E+01</rscale>
<asrwt>0</asrwt>
<pdfrwt beam="1">0</pdfrwt>
<pdfrwt beam="2">0</pdfrwt>
<totfact> 0.12747652E+12</totfact>
</mgrwt>
</event>
<event>
 4    1  0.3281603E+006  0.2505771E+01  0.7546771E-02  0.2705991E+00
         22   -1    0    0    0    0  0.00000000000E+00  0.00000000000E+00  0.23247696486E+00  0.23247696486E+00  0.00000000000E+00 0.  1.
         22   -1    0    0    0    0 -0.00000000000E+00 -0.00000000000E+00 -0.27508201754E+02  0.27508201754E+02  0.00000000000E+00 0. -1.
          2    1    1    2  501    0 -0.81743181588E+00 -0.23686885735E+01 -0.11768686220E+02  0.12032491936E+02  0.25500000000E-02 0.  1.
         -2    1    1    2    0  501  0.81743181588E+00  0.23686885735E+01 -0.15507038569E+02  0.15708186783E+02  0.25500000000E-02 0. -1.
<mgrwt>
<rscale>  0 0.25057707E+01</rscale>
<asrwt>0</asrwt>
<pdfrwt beam="1">0</pdfrwt>
<pdfrwt beam="2">0</pdfrwt>
<totfact> 0.23560435E+12</totfact>
</mgrwt>
</event>
<event>
 4    1  0.3281603E+006  0.3002709E+01  0.7546771E-02  0.2521325E+00
         22   -1    0    0    0    0  0.00000000000E+00  0.00000000000E+00  0.40468092116E+00  0.40468092116E+00  0.00000000000E+00 0.  1.
         22   -1    0    0    0    0 -0.00000000000E+00 -0.00000000000E+00 -0.23024037539E+02  0.23024037539E+02  0.00000000000E+00 0. -1.
          2    1    1    2  501    0  0.29732963449E+01 -0.41924101342E+00 -0.92037333017E+01  0.96811656000E+01  0.25500000000E-02 0.  1.
         -2    1    1    2    0  501 -0.29732963449E+01  0.41924101342E+00 -0.13415623316E+02  0.13747552860E+02  0.25500000000E-02 0. -1.
<mgrwt>
<rscale>  0 0.30027089E+01</rscale>
<asrwt>0</asrwt>
<pdfrwt beam="1">0</pdfrwt>
<pdfrwt beam="2">0</pdfrwt>
<totfact> 0.15838092E+12</totfact>
</mgrwt>
</event>
<event>
 4    1  0.3281603E+006  0.3275779E+01  0.7546771E-02  0.2441615E+00
         22   -1    0    0    0    0  0.00000000000E+00  0.00000000000E+00  0.13862579093E+02  0.13862579093E+02  0.00000000000E+00 0.  1.
         22   -1    0    0    0    0 -0.00000000000E+00 -0.00000000000E+00 -0.77542607113E+00  0.77542607113E+00  0.00000000000E+00 0. -1.
          2    1    1    2  501    0  0.15326771404E+01  0.28951036584E+01  0.62385186682E+01  0.70462646903E+01  0.25500000000E-02 0. -1.
         -2    1    1    2    0  501 -0.15326771404E+01 -0.28951036584E+01  0.68486343538E+01  0.75917404740E+01  0.25500000000E-02 0.  1.
<mgrwt>
<rscale>  0 0.32757794E+01</rscale>
<asrwt>0</asrwt>
<pdfrwt beam="1">0</pdfrwt>
<pdfrwt beam="2">0</pdfrwt>
<totfact> 0.14241519E+12</totfact>
</mgrwt>
</event>
<event>
 4    1  0.3281603E+006  0.4545952E+01  0.7546771E-02  0.2183686E+00
         22   -1    0    0    0    0  0.00000000000E+00  0.00000000000E+00  0.17749826995E+02  0.17749826995E+02  0.00000000000E+00 0. -1.
         22   -1    0    0    0    0 -0.00000000000E+00 -0.00000000000E+00 -0.11920300133E+01  0.11920300133E+01  0.00000000000E+00 0.  1.
          2    1    1    2  501    0 -0.13778809679E+01 -0.43321031573E+01  0.97240703776E+01  0.10734208165E+02  0.25500000000E-02 0. -1.
         -2    1    1    2    0  501  0.13778809679E+01  0.43321031573E+01  0.68337266039E+01  0.82076488428E+01  0.25500000000E-02 0.  1.
<mgrwt>
<rscale>  0 0.45459521E+01</rscale>
<asrwt>0</asrwt>
<pdfrwt beam="1">0</pdfrwt>
<pdfrwt beam="2">0</pdfrwt>
<totfact> 0.64279137E+11</totfact>
</mgrwt>
</event>
<event>
 4    1  0.3281603E+006  0.2731076E+01  0.7546771E-02  0.2614663E+00
         22   -1    0    0    0    0  0.00000000000E+00  0.00000000000E+00  0.27297304473E+01  0.27297304473E+01  0.00000000000E+00 0. -1.
         22   -1    0    0    0    0 -0.00000000000E+00 -0.00000000000E+00 -0.27586606961E+01  0.27586606961E+01  0.00000000000E+00 0.  1.
          2    1    1    2  501    0 -0.41140278274E+00  0.26999102411E+01 -0.28209924808E+00  0.27456063170E+01  0.25500000000E-02 0. -1.
         -2    1    1    2    0  501  0.41140278274E+00 -0.26999102411E+01  0.25316899931E+00  0.27427848265E+01  0.25500000000E-02 0.  1.
<mgrwt>
<rscale>  0 0.27310756E+01</rscale>
<asrwt>0</asrwt>
<pdfrwt beam="1">0</pdfrwt>
<pdfrwt beam="2">0</pdfrwt>
<totfact> 0.22975494E+12</totfact>
</mgrwt>
</event>
<event>
 4    1  0.3281603E+006  0.4365757E+01  0.7546771E-02  0.2212394E+00
         22   -1    0    0    0    0  0.00000000000E+00  0.00000000000E+00  0.90467413926E+01  0.90467413926E+01  0.00000000000E+00 0. -1.
         22   -1    0    0    0    0 -0.00000000000E+00 -0.00000000000E+00 -0.42776941951E+01  0.42776941951E+01  0.00000000000E+00 0.  1.
          2    1    1    2  501    0  0.19295931874E+01 -0.39161840563E+01  0.71305650577E+01  0.83609085617E+01  0.25500000000E-02 0. -1.
         -2    1    1    2    0  501 -0.19295931874E+01  0.39161840563E+01 -0.23615178603E+01  0.49635270261E+01  0.25500000000E-02 0.  1.
<mgrwt>
<rscale>  0 0.43657570E+01</rscale>
<asrwt>0</asrwt>
<pdfrwt beam="1">0</pdfrwt>
<pdfrwt beam="2">0</pdfrwt>
<totfact> 0.33231790E+11</totfact>
</mgrwt>
</event>
<event>
 4    1  0.3281603E+006  0.2509074E+01  0.7546771E-02  0.2704543E+00
         22   -1    0    0    0    0  0.00000000000E+00  0.00000000000E+00  0.25680391859E+01  0.25680391859E+01  0.00000000000E+00 0. -1.
         22   -1    0    0    0    0 -0.00000000000E+00 -0.00000000000E+00 -0.26196379279E+01  0.26196379279E+01  0.00000000000E+00 0.  1.
          2    1    1    2  501    0 -0.12569159304E+01  0.21715446648E+01  0.63141078768E+00  0.25873016779E+01  0.25500000000E-02 0. -1.
         -2    1    1    2    0  501  0.12569159304E+01 -0.21715446648E+01 -0.68300952964E+00  0.26003754358E+01  0.25500000000E-02 0.  1.
<mgrwt>
<rscale>  0 0.25090736E+01</rscale>
<asrwt>0</asrwt>
<pdfrwt beam="1">0</pdfrwt>
<pdfrwt beam="2">0</pdfrwt>
<totfact> 0.26200626E+12</totfact>
</mgrwt>
</event>
<event>
 4    1  0.3281603E+006  0.2365004E+01  0.7546771E-02  0.2771213E+00
         22   -1    0    0    0    0  0.00000000000E+00  0.00000000000E+00  0.40288063329E+01  0.40288063329E+01  0.00000000000E+00 0. -1.
         22   -1    0    0    0    0 -0.00000000000E+00 -0.00000000000E+00 -0.44797131851E+01  0.44797131851E+01  0.00000000000E+00 0.  1.
          2    1    1    2  501    0 -0.19724119326E+01 -0.13049249265E+01  0.33086276636E+01  0.40669720203E+01  0.25500000000E-02 0. -1.
         -2    1    1    2    0  501  0.19724119326E+01  0.13049249265E+01 -0.37595345158E+01  0.44415474976E+01  0.25500000000E-02 0.  1.
<mgrwt>
<rscale>  0 0.23650041E+01</rscale>
<asrwt>0</asrwt>
<pdfrwt beam="1">0</pdfrwt>
<pdfrwt beam="2">0</pdfrwt>
<totfact> 0.82472257E+11</totfact>
</mgrwt>
</event>
<event>
 4    1  0.3281603E+006  0.3554009E+01  0.7546771E-02  0.2371622E+00
         22   -1    0    0    0    0  0.00000000000E+00  0.00000000000E+00  0.36055036587E+01  0.36055036587E+01  0.00000000000E+00 0.  1.
         22   -1    0    0    0    0 -0.00000000000E+00 -0.00000000000E+00 -0.36377159425E+01  0.36377159425E+01  0.00000000000E+00 0. -1.
          2    1    1    2  501    0  0.30450086610E+01  0.18327299852E+01  0.68018710265E+00  0.36185132225E+01  0.25500000000E-02 0.  1.
         -2    1    1    2    0  501 -0.30450086610E+01 -0.18327299852E+01 -0.71239938645E+00  0.36247063788E+01  0.25500000000E-02 0. -1.
<mgrwt>
<rscale>  0 0.35540095E+01</rscale>
<asrwt>0</asrwt>
<pdfrwt beam="1">0</pdfrwt>
<pdfrwt beam="2">0</pdfrwt>
<totfact> 0.12006484E+12</totfact>
</mgrwt>
</event>
<event>
 4    1  0.3281603E+006  0.3685867E+01  0.7546771E-02  0.2341689E+00
         22   -1    0    0    0    0  0.00000000000E+00  0.00000000000E+00  0.65156181228E+01  0.65156181228E+01  0.00000000000E+00 0. -1.
         22   -1    0    0    0    0 -0.00000000000E+00 -0.00000000000E+00 -0.21881046015E+01  0.21881046015E+01  0.00000000000E+00 0.  1.
          2    1    1    2  501    0 -0.27166156731E+01  0.24911057579E+01  0.31080388516E+01  0.48213608678E+01  0.25500000000E-02 0. -1.
         -2    1    1    2    0  501  0.27166156731E+01 -0.24911057579E+01  0.12194746698E+01  0.38823618565E+01  0.25500000000E-02 0.  1.
<mgrwt>
<rscale>  0 0.36858669E+01</rscale>
<asrwt>0</asrwt>
<pdfrwt beam="1">0</pdfrwt>
<pdfrwt beam="2">0</pdfrwt>
<totfact> 0.10786893E+12</totfact>
</mgrwt>
</event>
<event>
 4    1  0.3281603E+006  0.2213062E+01  0.7546771E-02  0.2850362E+00
         22   -1    0    0    0    0  0.00000000000E+00  0.00000000000E+00  0.32476606567E+00  0.32476606567E+00  0.00000000000E+00 0.  1.
         22   -1    0    0    0    0 -0.00000000000E+00 -0.00000000000E+00 -0.17420317600E+02  0.17420317600E+02  0.00000000000E+00 0. -1.
          2    1    1    2  501    0  0.20765254572E+01  0.76529765754E+00 -0.52960937320E+01  0.57398827339E+01  0.25500000000E-02 0.  1.
         -2    1    1    2    0  501 -0.20765254572E+01 -0.76529765754E+00 -0.11799457802E+02  0.12005200932E+02  0.25500000000E-02 0. -1.
<mgrwt>
<rscale>  0 0.22130624E+01</rscale>
<asrwt>0</asrwt>
<pdfrwt beam="1">0</pdfrwt>
<pdfrwt beam="2">0</pdfrwt>
<totfact> 0.28716838E+12</totfact>
</mgrwt>
</event>
<event>
 4    1  0.3281603E+006  0.8466491E+01  0.7546771E-02  0.1850471E+00
         22   -1    0    0    0    0  0.00000000000E+00  0.00000000000E+00  0.16926656075E+01  0.16926656075E+01  0.00000000000E+00 0. -1.
         22   -1    0    0    0    0 -0.00000000000E+00 -0.00000000000E+00 -0.43281963525E+02  0.43281963525E+02  0.00000000000E+00 0.  1.
          2    1    1    2  501    0 -0.80949980271E+01  0.24804161018E+01 -0.17491822011E+02  0.19433098076E+02  0.25500000000E-02 0.  1.
         -2    1    1    2    0  501  0.80949980271E+01 -0.24804161018E+01 -0.24097475907E+02  0.25541531056E+02  0.25500000000E-02 0. -1.
<mgrwt>
<rscale>  0 0.84664906E+01</rscale>
<asrwt>0</asrwt>
<pdfrwt beam="1">0</pdfrwt>
<pdfrwt beam="2">0</pdfrwt>
<totfact> 0.13850017E+11</totfact>
</mgrwt>
</event>
<event>
 4    1  0.3281603E+006  0.2051423E+01  0.7546771E-02  0.2946858E+00
         22   -1    0    0    0    0  0.00000000000E+00  0.00000000000E+00  0.31448948037E+01  0.31448948037E+01  0.00000000000E+00 0. -1.
         22   -1    0    0    0    0 -0.00000000000E+00 -0.00000000000E+00 -0.23758505569E+01  0.23758505569E+01  0.00000000000E+00 0.  1.
          2    1    1    2  501    0 -0.19947171591E+01  0.47899025238E+00  0.22088151706E+01  0.30144981617E+01  0.25500000000E-02 0. -1.
         -2    1    1    2    0  501  0.19947171591E+01 -0.47899025238E+00 -0.14397709237E+01  0.25062471989E+01  0.25500000000E-02 0.  1.
<mgrwt>
<rscale>  0 0.20514226E+01</rscale>
<asrwt>0</asrwt>
<pdfrwt beam="1">0</pdfrwt>
<pdfrwt beam="2">0</pdfrwt>
<totfact> 0.23171094E+12</totfact>
</mgrwt>
</event>
<event>
 4    1  0.3281603E+006  0.4213378E+01  0.7546771E-02  0.2238272E+00
         22   -1    0    0    0    0  0.00000000000E+00  0.00000000000E+00  0.35874397366E+01  0.35874397366E+01  0.00000000000E+00 0.  1.
         22   -1    0    0    0    0 -0.00000000000E+00 -0.00000000000E+00 -0.50778748067E+01  0.50778748067E+01  0.00000000000E+00 0. -1.
          2    1    1    2  501    0  0.39148430888E+01 -0.15577399516E+01 -0.53727068085E-01  0.42137208340E+01  0.25500000000E-02 0.  1.
         -2    1    1    2    0  501 -0.39148430888E+01  0.15577399516E+01 -0.14367080020E+01  0.44515937093E+01  0.25500000000E-02 0. -1.
<mgrwt>
<rscale>  0 0.42133783E+01</rscale>
<asrwt>0</asrwt>
<pdfrwt beam="1">0</pdfrwt>
<pdfrwt beam="2">0</pdfrwt>
<totfact> 0.81505075E+11</totfact>
</mgrwt>
</event>
<event>
 4    1  0.3281603E+006  0.2263735E+01  0.7546771E-02  0.2822843E+00
         22   -1    0    0    0    0  0.00000000000E+00  0.00000000000E+00  0.78000049615E+01  0.78000049615E+01  0.00000000000E+00 0.  1.
         22   -1    0    0    0    0 -0.00000000000E+00 -0.00000000000E+00 -0.90391964952E+00  0.90391964952E+00  0.00000000000E+00 0. -1.
          2    1    1    2  501    0 -0.20408286087E+01 -0.97954376003E+00  0.57226705888E+01  0.61541410902E+01  0.25500000000E-02 0.  1.
         -2    1    1    2    0  501  0.20408286087E+01  0.97954376003E+00  0.11734147232E+01  0.25497835208E+01  0.25500000000E-02 0. -1.
<mgrwt>
<rscale>  0 0.22637345E+01</rscale>
<asrwt>0</asrwt>
<pdfrwt beam="1">0</pdfrwt>
<pdfrwt beam="2">0</pdfrwt>
<totfact> 0.24024104E+12</totfact>
</mgrwt>
</event>
<event>
 4    1  0.3281603E+006  0.4344243E+01  0.7546771E-02  0.2215955E+00
         22   -1    0    0    0    0  0.00000000000E+00  0.00000000000E+00  0.10594142863E+01  0.10594142863E+01  0.00000000000E+00 0. -1.
         22   -1    0    0    0    0 -0.00000000000E+00 -0.00000000000E+00 -0.95136226229E+02  0.95136226229E+02  0.00000000000E+00 0.  1.
          2    1    1    2  501    0  0.43020831655E+01 -0.60375413927E+00 -0.36768851093E+01  0.56913907995E+01  0.25500000000E-02 0. -1.
         -2    1    1    2    0  501 -0.43020831655E+01  0.60375413927E+00 -0.90399926833E+02  0.90504249715E+02  0.25500000000E-02 0.  1.
<mgrwt>
<rscale>  0 0.43442428E+01</rscale>
<asrwt>0</asrwt>
<pdfrwt beam="1">0</pdfrwt>
<pdfrwt beam="2">0</pdfrwt>
<totfact> 0.82026307E+10</totfact>
</mgrwt>
</event>
<event>
 4    1  0.3281603E+006  0.5653574E+01  0.7546771E-02  0.2052223E+00
         22   -1    0    0    0    0  0.00000000000E+00  0.00000000000E+00  0.21107912436E+01  0.21107912436E+01  0.00000000000E+00 0.  1.
         22   -1    0    0    0    0 -0.00000000000E+00 -0.00000000000E+00 -0.21906140190E+02  0.21906140190E+02  0.00000000000E+00 0. -1.
          2    1    1    2  501    0  0.15335567176E+00  0.56514935224E+01 -0.32251360864E+01  0.65087945331E+01  0.25500000000E-02 0.  1.
         -2    1    1    2    0  501 -0.15335567176E+00 -0.56514935224E+01 -0.16570212860E+02  0.17508136900E+02  0.25500000000E-02 0. -1.
<mgrwt>
<rscale>  0 0.56535744E+01</rscale>
<asrwt>0</asrwt>
<pdfrwt beam="1">0</pdfrwt>
<pdfrwt beam="2">0</pdfrwt>
<totfact> 0.25605114E+11</totfact>
</mgrwt>
</event>
<event>
 4    1  0.3281603E+006  0.3962292E+01  0.7546771E-02  0.2284561E+00
         22   -1    0    0    0    0  0.00000000000E+00  0.00000000000E+00  0.45668256964E+01  0.45668256964E+01  0.00000000000E+00 0. -1.
         22   -1    0    0    0    0 -0.00000000000E+00 -0.00000000000E+00 -0.41402747090E+01  0.41402747090E+01  0.00000000000E+00 0.  1.
          2    1    1    2  501    0 -0.29437628954E+01  0.26521704744E+01  0.20065618705E+01  0.44414012713E+01  0.25500000000E-02 0. -1.
         -2    1    1    2    0  501  0.29437628954E+01 -0.26521704744E+01 -0.15800108830E+01  0.42656991341E+01  0.25500000000E-02 0.  1.
<mgrwt>
<rscale>  0 0.39622916E+01</rscale>
<asrwt>0</asrwt>
<pdfrwt beam="1">0</pdfrwt>
<pdfrwt beam="2">0</pdfrwt>
<totfact> 0.78072121E+11</totfact>
</mgrwt>
</event>
<event>
 4    1  0.3281603E+006  0.2233682E+01  0.7546771E-02  0.2839021E+00
         22   -1    0    0    0    0  0.00000000000E+00  0.00000000000E+00  0.28421113575E+01  0.28421113575E+01  0.00000000000E+00 0.  1.
         22   -1    0    0    0    0 -0.00000000000E+00 -0.00000000000E+00 -0.27390209271E+01  0.27390209271E+01  0.00000000000E+00 0. -1.
          2    1    1    2  501    0 -0.12382025727E+00  0.22302461413E+01  0.17237356078E+01  0.28214535713E+01  0.25500000000E-02 0.  1.
         -2    1    1    2    0  501  0.12382025727E+00 -0.22302461413E+01 -0.16206451774E+01  0.27596787133E+01  0.25500000000E-02 0. -1.
<mgrwt>
<rscale>  0 0.22336821E+01</rscale>
<asrwt>0</asrwt>
<pdfrwt beam="1">0</pdfrwt>
<pdfrwt beam="2">0</pdfrwt>
<totfact> 0.22101946E+12</totfact>
</mgrwt>
</event>
<event>
 4    1  0.3281603E+006  0.3509248E+01  0.7546771E-02  0.2382226E+00
         22   -1    0    0    0    0  0.00000000000E+00  0.00000000000E+00  0.20496783494E+01  0.20496783494E+01  0.00000000000E+00 0. -1.
         22   -1    0    0    0    0 -0.00000000000E+00 -0.00000000000E+00 -0.66279496270E+01  0.66279496270E+01  0.00000000000E+00 0.  1.
          2    1    1    2  501    0  0.20249180757E+01  0.28660992759E+01 -0.96235668165E+00  0.36388123279E+01  0.25500000000E-02 0. -1.
         -2    1    1    2    0  501 -0.20249180757E+01 -0.28660992759E+01 -0.36159145959E+01  0.50388156485E+01  0.25500000000E-02 0.  1.
<mgrwt>
<rscale>  0 0.35092485E+01</rscale>
<asrwt>0</asrwt>
<pdfrwt beam="1">0</pdfrwt>
<pdfrwt beam="2">0</pdfrwt>
<totfact> 0.11400556E+12</totfact>
</mgrwt>
</event>
<event>
 4    1  0.3281603E+006  0.4299969E+01  0.7546771E-02  0.2223377E+00
         22   -1    0    0    0    0  0.00000000000E+00  0.00000000000E+00  0.19618488049E+01  0.19618488049E+01  0.00000000000E+00 0. -1.
         22   -1    0    0    0    0 -0.00000000000E+00 -0.00000000000E+00 -0.23241355471E+02  0.23241355471E+02  0.00000000000E+00 0.  1.
          2    1    1    2  501    0  0.92248000668E+00  0.41998525444E+01 -0.92353431679E+00  0.43980282962E+01  0.25500000000E-02 0. -1.
         -2    1    1    2    0  501 -0.92248000668E+00 -0.41998525444E+01 -0.20355972349E+02  0.20805175980E+02  0.25500000000E-02 0.  1.
<mgrwt>
<rscale>  0 0.42999694E+01</rscale>
<asrwt>0</asrwt>
<pdfrwt beam="1">0</pdfrwt>
<pdfrwt beam="2">0</pdfrwt>
<totfact> 0.25875407E+11</totfact>
</mgrwt>
</event>
<event>
 4    1  0.3281603E+006  0.2289027E+01  0.7546771E-02  0.2809543E+00
         22   -1    0    0    0    0  0.00000000000E+00  0.00000000000E+00  0.63230052072E+01  0.63230052072E+01  0.00000000000E+00 0. -1.
         22   -1    0    0    0    0 -0.00000000000E+00 -0.00000000000E+00 -0.11555549828E+01  0.11555549828E+01  0.00000000000E+00 0.  1.
          2    1    1    2  501    0 -0.16661048250E+01 -0.15696287817E+01  0.45725393104E+01  0.51134882465E+01  0.25500000000E-02 0. -1.
         -2    1    1    2    0  501  0.16661048250E+01  0.15696287817E+01  0.59491091402E+00  0.23650719436E+01  0.25500000000E-02 0.  1.
<mgrwt>
<rscale>  0 0.22890274E+01</rscale>
<asrwt>0</asrwt>
<pdfrwt beam="1">0</pdfrwt>
<pdfrwt beam="2">0</pdfrwt>
<totfact> 0.23327405E+12</totfact>
</mgrwt>
</event>
<event>
 4    1  0.3281603E+006  0.2510368E+01  0.7546771E-02  0.2703977E+00
         22   -1    0    0    0    0  0.00000000000E+00  0.00000000000E+00  0.33986801434E+01  0.33986801434E+01  0.00000000000E+00 0. -1.
         22   -1    0    0    0    0 -0.00000000000E+00 -0.00000000000E+00 -0.18555432101E+01  0.18555432101E+01  0.00000000000E+00 0.  1.
          2    1    1    2  501    0 -0.84074797287E+00  0.23653924904E+01  0.84137457062E+00  0.26476133513E+01  0.25500000000E-02 0.  1.
         -2    1    1    2    0  501  0.84074797287E+00 -0.23653924904E+01  0.70176236270E+00  0.26066100022E+01  0.25500000000E-02 0. -1.
<mgrwt>
<rscale>  0 0.25103676E+01</rscale>
<asrwt>0</asrwt>
<pdfrwt beam="1">0</pdfrwt>
<pdfrwt beam="2">0</pdfrwt>
<totfact> 0.28177808E+12</totfact>
</mgrwt>
</event>
<event>
 4    1  0.3281603E+006  0.2334128E+01  0.7546771E-02  0.2786505E+00
         22   -1    0    0    0    0  0.00000000000E+00  0.00000000000E+00  0.35431447319E+01  0.35431447319E+01  0.00000000000E+00 0.  1.
         22   -1    0    0    0    0 -0.00000000000E+00 -0.00000000000E+00 -0.15394867041E+01  0.15394867041E+01  0.00000000000E+00 0. -1.
          2    1    1    2  501    0  0.15769412909E+01  0.17208721323E+01  0.91428467245E+00  0.25068042795E+01  0.25500000000E-02 0.  1.
         -2    1    1    2    0  501 -0.15769412909E+01 -0.17208721323E+01  0.10893733553E+01  0.25758271566E+01  0.25500000000E-02 0. -1.
<mgrwt>
<rscale>  0 0.23341275E+01</rscale>
<asrwt>0</asrwt>
<pdfrwt beam="1">0</pdfrwt>
<pdfrwt beam="2">0</pdfrwt>
<totfact> 0.33284271E+12</totfact>
</mgrwt>
</event>
<event>
 4    1  0.3281603E+006  0.2681849E+01  0.7546771E-02  0.2633410E+00
         22   -1    0    0    0    0  0.00000000000E+00  0.00000000000E+00  0.40387414562E+02  0.40387414562E+02  0.00000000000E+00 0. -1.
         22   -1    0    0    0    0 -0.00000000000E+00 -0.00000000000E+00 -0.14204088770E+01  0.14204088770E+01  0.00000000000E+00 0.  1.
          2    1    1    2  501    0  0.10876296705E+01 -0.24514019781E+01  0.39033136337E+02  0.39125158770E+02  0.25500000000E-02 0. -1.
         -2    1    1    2    0  501 -0.10876296705E+01  0.24514019781E+01 -0.66130652636E-01  0.26826646686E+01  0.25500000000E-02 0.  1.
<mgrwt>
<rscale>  0 0.26818494E+01</rscale>
<asrwt>0</asrwt>
<pdfrwt beam="1">0</pdfrwt>
<pdfrwt beam="2">0</pdfrwt>
<totfact> 0.18546448E+11</totfact>
</mgrwt>
</event>
<event>
 4    1  0.3281603E+006  0.2412001E+01  0.7546771E-02  0.2748645E+00
         22   -1    0    0    0    0  0.00000000000E+00  0.00000000000E+00  0.23108901670E+01  0.23108901670E+01  0.00000000000E+00 0. -1.
         22   -1    0    0    0    0 -0.00000000000E+00 -0.00000000000E+00 -0.15199603895E+02  0.15199603895E+02  0.00000000000E+00 0.  1.
          2    1    1    2  501    0 -0.21668451050E+00 -0.24022471989E+01  0.15530151391E+01  0.28687290402E+01  0.25500000000E-02 0. -1.
         -2    1    1    2    0  501  0.21668451050E+00  0.24022471989E+01 -0.14441728868E+02  0.14641765022E+02  0.25500000000E-02 0.  1.
<mgrwt>
<rscale>  0 0.24120013E+01</rscale>
<asrwt>0</asrwt>
<pdfrwt beam="1">0</pdfrwt>
<pdfrwt beam="2">0</pdfrwt>
<totfact> 0.36289166E+11</totfact>
</mgrwt>
</event>
<event>
 4    1  0.3281603E+006  0.5767437E+01  0.7546771E-02  0.2041194E+00
         22   -1    0    0    0    0  0.00000000000E+00  0.00000000000E+00  0.16650201814E+02  0.16650201814E+02  0.00000000000E+00 0.  1.
         22   -1    0    0    0    0 -0.00000000000E+00 -0.00000000000E+00 -0.54428638292E+01  0.54428638292E+01  0.00000000000E+00 0. -1.
          2    1    1    2  501    0 -0.34936495878E+01 -0.45888712905E+01  0.14392124390E+02  0.15504727605E+02  0.25500000000E-02 0.  1.
         -2    1    1    2    0  501  0.34936495878E+01  0.45888712905E+01 -0.31847864045E+01  0.65883380383E+01  0.25500000000E-02 0. -1.
<mgrwt>
<rscale>  0 0.57674374E+01</rscale>
<asrwt>0</asrwt>
<pdfrwt beam="1">0</pdfrwt>
<pdfrwt beam="2">0</pdfrwt>
<totfact> 0.11868616E+11</totfact>
</mgrwt>
</event>
<event>
 4    1  0.3281603E+006  0.2789955E+01  0.7546771E-02  0.2593035E+00
         22   -1    0    0    0    0  0.00000000000E+00  0.00000000000E+00  0.24774990948E+01  0.24774990948E+01  0.00000000000E+00 0.  1.
         22   -1    0    0    0    0 -0.00000000000E+00 -0.00000000000E+00 -0.35515102539E+01  0.35515102539E+01  0.00000000000E+00 0. -1.
          2    1    1    2  501    0 -0.16904592930E+01  0.22195024588E+01  0.48684954299E+00  0.28321145397E+01  0.25500000000E-02 0.  1.
         -2    1    1    2    0  501  0.16904592930E+01 -0.22195024588E+01 -0.15608607021E+01  0.31968948090E+01  0.25500000000E-02 0. -1.
<mgrwt>
<rscale>  0 0.27899552E+01</rscale>
<asrwt>0</asrwt>
<pdfrwt beam="1">0</pdfrwt>
<pdfrwt beam="2">0</pdfrwt>
<totfact> 0.19141879E+12</totfact>
</mgrwt>
</event>
<event>
 4    1  0.3281603E+006  0.3628918E+01  0.7546771E-02  0.2354386E+00
         22   -1    0    0    0    0  0.00000000000E+00  0.00000000000E+00  0.24390579662E+01  0.24390579662E+01  0.00000000000E+00 0. -1.
         22   -1    0    0    0    0 -0.00000000000E+00 -0.00000000000E+00 -0.14533217183E+02  0.14533217183E+02  0.00000000000E+00 0.  1.
          2    1    1    2  501    0  0.55796118597E+00 -0.35857661131E+01  0.68050672028E+00  0.36921721522E+01  0.25500000000E-02 0. -1.
         -2    1    1    2    0  501 -0.55796118597E+00  0.35857661131E+01 -0.12774665937E+02  0.13280102997E+02  0.25500000000E-02 0.  1.
<mgrwt>
<rscale>  0 0.36289180E+01</rscale>
<asrwt>0</asrwt>
<pdfrwt beam="1">0</pdfrwt>
<pdfrwt beam="2">0</pdfrwt>
<totfact> 0.36017143E+11</totfact>
</mgrwt>
</event>
<event>
 4    1  0.3281603E+006  0.2279361E+01  0.7546771E-02  0.2814592E+00
         22   -1    0    0    0    0  0.00000000000E+00  0.00000000000E+00  0.10321460647E+02  0.10321460647E+02  0.00000000000E+00 0. -1.
         22   -1    0    0    0    0 -0.00000000000E+00 -0.00000000000E+00 -0.53153117175E+00  0.53153117175E+00  0.00000000000E+00 0.  1.
          2    1    1    2  501    0  0.22775436194E+01  0.90979385910E-01  0.61440702201E+01  0.65532501523E+01  0.25500000000E-02 0. -1.
         -2    1    1    2    0  501 -0.22775436194E+01 -0.90979385910E-01  0.36458592548E+01  0.42997416660E+01  0.25500000000E-02 0.  1.
<mgrwt>
<rscale>  0 0.22793615E+01</rscale>
<asrwt>0</asrwt>
<pdfrwt beam="1">0</pdfrwt>
<pdfrwt beam="2">0</pdfrwt>
<totfact> 0.31307224E+12</totfact>
</mgrwt>
</event>
<event>
 4    1  0.3281603E+006  0.2192422E+01  0.7546771E-02  0.2861920E+00
         22   -1    0    0    0    0  0.00000000000E+00  0.00000000000E+00  0.75225424405E+00  0.75225424405E+00  0.00000000000E+00 0. -1.
         22   -1    0    0    0    0 -0.00000000000E+00 -0.00000000000E+00 -0.90349898307E+01  0.90349898307E+01  0.00000000000E+00 0.  1.
          2    1    1    2  501    0  0.25065900430E+00 -0.21780445312E+01 -0.14934813923E+01  0.26527723400E+01  0.25500000000E-02 0. -1.
         -2    1    1    2    0  501 -0.25065900430E+00  0.21780445312E+01 -0.67892541944E+01  0.71344717348E+01  0.25500000000E-02 0.  1.
<mgrwt>
<rscale>  0 0.21924220E+01</rscale>
<asrwt>0</asrwt>
<pdfrwt beam="1">0</pdfrwt>
<pdfrwt beam="2">0</pdfrwt>
<totfact> 0.24809136E+12</totfact>
</mgrwt>
</event>
<event>
 4    1  0.3281603E+006  0.4410644E+01  0.7546771E-02  0.2205059E+00
         22   -1    0    0    0    0  0.00000000000E+00  0.00000000000E+00  0.12164556598E+02  0.12164556598E+02  0.00000000000E+00 0.  1.
         22   -1    0    0    0    0 -0.00000000000E+00 -0.00000000000E+00 -0.20033504820E+01  0.20033504820E+01  0.00000000000E+00 0. -1.
          2    1    1    2  501    0 -0.84765996490E+00  0.43284227738E+01  0.82623023158E+01  0.93658644655E+01  0.25500000000E-02 0.  1.
         -2    1    1    2    0  501  0.84765996490E+00 -0.43284227738E+01  0.18989037999E+01  0.48020426142E+01  0.25500000000E-02 0. -1.
<mgrwt>
<rscale>  0 0.44106437E+01</rscale>
<asrwt>0</asrwt>
<pdfrwt beam="1">0</pdfrwt>
<pdfrwt beam="2">0</pdfrwt>
<totfact> 0.56266809E+11</totfact>
</mgrwt>
</event>
<event>
 4    1  0.3281603E+006  0.2115579E+01  0.7546771E-02  0.2906852E+00
         22   -1    0    0    0    0  0.00000000000E+00  0.00000000000E+00  0.46858473294E+01  0.46858473294E+01  0.00000000000E+00 0. -1.
         22   -1    0    0    0    0 -0.00000000000E+00 -0.00000000000E+00 -0.25361320876E+01  0.25361320876E+01  0.00000000000E+00 0.  1.
          2    1    1    2  501    0 -0.11288495333E+01 -0.17892364900E+01  0.39259031011E+01  0.44596401366E+01  0.25500000000E-02 0. -1.
         -2    1    1    2    0  501  0.11288495333E+01  0.17892364900E+01 -0.17761878593E+01  0.27623392804E+01  0.25500000000E-02 0.  1.
<mgrwt>
<rscale>  0 0.21155791E+01</rscale>
<asrwt>0</asrwt>
<pdfrwt beam="1">0</pdfrwt>
<pdfrwt beam="2">0</pdfrwt>
<totfact> 0.13440196E+12</totfact>
</mgrwt>
</event>
<event>
 4    1  0.3281603E+006  0.2350405E+01  0.7546771E-02  0.2778396E+00
         22   -1    0    0    0    0  0.00000000000E+00  0.00000000000E+00  0.30399760922E+01  0.30399760922E+01  0.00000000000E+00 0.  1.
         22   -1    0    0    0    0 -0.00000000000E+00 -0.00000000000E+00 -0.41587278746E+01  0.41587278746E+01  0.00000000000E+00 0. -1.
          2    1    1    2  501    0  0.15981489864E+01  0.17234611045E+01  0.21414018316E+01  0.31796236677E+01  0.25500000000E-02 0.  1.
         -2    1    1    2    0  501 -0.15981489864E+01 -0.17234611045E+01 -0.32601536140E+01  0.40190802991E+01  0.25500000000E-02 0. -1.
<mgrwt>
<rscale>  0 0.23504053E+01</rscale>
<asrwt>0</asrwt>
<pdfrwt beam="1">0</pdfrwt>
<pdfrwt beam="2">0</pdfrwt>
<totfact> 0.12525940E+12</totfact>
</mgrwt>
</event>
<event>
 4    1  0.3281603E+006  0.3112116E+01  0.7546771E-02  0.2487895E+00
         22   -1    0    0    0    0  0.00000000000E+00  0.00000000000E+00  0.11856994352E+01  0.11856994352E+01  0.00000000000E+00 0. -1.
         22   -1    0    0    0    0 -0.00000000000E+00 -0.00000000000E+00 -0.13043630830E+02  0.13043630830E+02  0.00000000000E+00 0.  1.
          2    1    1    2  501    0 -0.23710914856E+01 -0.20157337634E+01 -0.15793295301E+01  0.34899205872E+01  0.25500000000E-02 0. -1.
         -2    1    1    2    0  501  0.23710914856E+01  0.20157337634E+01 -0.10278601865E+02  0.10739409678E+02  0.25500000000E-02 0.  1.
<mgrwt>
<rscale>  0 0.31121157E+01</rscale>
<asrwt>0</asrwt>
<pdfrwt beam="1">0</pdfrwt>
<pdfrwt beam="2">0</pdfrwt>
<totfact> 0.94510731E+11</totfact>
</mgrwt>
</event>
<event>
 4    1  0.3281603E+006  0.3755441E+01  0.7546771E-02  0.2326631E+00
         22   -1    0    0    0    0  0.00000000000E+00  0.00000000000E+00  0.74668697718E+00  0.74668697718E+00  0.00000000000E+00 0.  1.
         22   -1    0    0    0    0 -0.00000000000E+00 -0.00000000000E+00 -0.19693839672E+02  0.19693839672E+02  0.00000000000E+00 0. -1.
          2    1    1    2  501    0 -0.18506593172E+01 -0.32677807042E+01 -0.11541109188E+02  0.12136743321E+02  0.25500000000E-02 0. -1.
         -2    1    1    2    0  501  0.18506593172E+01  0.32677807042E+01 -0.74060435062E+01  0.83037833279E+01  0.25500000000E-02 0.  1.
<mgrwt>
<rscale>  0 0.37554410E+01</rscale>
<asrwt>0</asrwt>
<pdfrwt beam="1">0</pdfrwt>
<pdfrwt beam="2">0</pdfrwt>
<totfact> 0.96322597E+11</totfact>
</mgrwt>
</event>
<event>
 4    1  0.3281603E+006  0.2135761E+01  0.7546771E-02  0.2894749E+00
         22   -1    0    0    0    0  0.00000000000E+00  0.00000000000E+00  0.19721715729E+01  0.19721715729E+01  0.00000000000E+00 0.  1.
         22   -1    0    0    0    0 -0.00000000000E+00 -0.00000000000E+00 -0.64397583993E+01  0.64397583993E+01  0.00000000000E+00 0. -1.
          2    1    1    2  501    0  0.20207738693E+01  0.69133297657E+00  0.11331793570E+01  0.24177614177E+01  0.25500000000E-02 0.  1.
         -2    1    1    2    0  501 -0.20207738693E+01 -0.69133297657E+00 -0.56007661834E+01  0.59941685544E+01  0.25500000000E-02 0. -1.
<mgrwt>
<rscale>  0 0.21357609E+01</rscale>
<asrwt>0</asrwt>
<pdfrwt beam="1">0</pdfrwt>
<pdfrwt beam="2">0</pdfrwt>
<totfact> 0.12336714E+12</totfact>
</mgrwt>
</event>
<event>
 4    1  0.3281603E+006  0.2082547E+01  0.7546771E-02  0.2927150E+00
         22   -1    0    0    0    0  0.00000000000E+00  0.00000000000E+00  0.13891558888E+01  0.13891558888E+01  0.00000000000E+00 0. -1.
         22   -1    0    0    0    0 -0.00000000000E+00 -0.00000000000E+00 -0.96915980795E+01  0.96915980795E+01  0.00000000000E+00 0.  1.
          2    1    1    2  501    0  0.20138436753E+01 -0.53049830445E+00  0.41029983641E+00  0.21225803301E+01  0.25500000000E-02 0. -1.
         -2    1    1    2    0  501 -0.20138436753E+01  0.53049830445E+00 -0.87127420270E+01  0.89581736382E+01  0.25500000000E-02 0.  1.
<mgrwt>
<rscale>  0 0.20825468E+01</rscale>
<asrwt>0</asrwt>
<pdfrwt beam="1">0</pdfrwt>
<pdfrwt beam="2">0</pdfrwt>
<totfact> 0.11309629E+12</totfact>
</mgrwt>
</event>
<event>
 4    1  0.3281603E+006  0.3821543E+01  0.7546771E-02  0.2312762E+00
         22   -1    0    0    0    0  0.00000000000E+00  0.00000000000E+00  0.13182974769E+01  0.13182974769E+01  0.00000000000E+00 0. -1.
         22   -1    0    0    0    0 -0.00000000000E+00 -0.00000000000E+00 -0.12338129719E+02  0.12338129719E+02  0.00000000000E+00 0.  1.
          2    1    1    2  501    0 -0.33636599478E+01 -0.18138299894E+01 -0.76920314620E+01  0.85890361502E+01  0.25500000000E-02 0.  1.
         -2    1    1    2    0  501  0.33636599478E+01  0.18138299894E+01 -0.33278007797E+01  0.50673910454E+01  0.25500000000E-02 0. -1.
<mgrwt>
<rscale>  0 0.38215434E+01</rscale>
<asrwt>0</asrwt>
<pdfrwt beam="1">0</pdfrwt>
<pdfrwt beam="2">0</pdfrwt>
<totfact> 0.89578965E+11</totfact>
</mgrwt>
</event>
<event>
 4    1  0.3281603E+006  0.2169229E+01  0.7546771E-02  0.2875158E+00
         22   -1    0    0    0    0  0.00000000000E+00  0.00000000000E+00  0.34505050489E+02  0.34505050489E+02  0.00000000000E+00 0.  1.
         22   -1    0    0    0    0 -0.00000000000E+00 -0.00000000000E+00 -0.17331712389E+00  0.17331712389E+00  0.00000000000E+00 0. -1.
          2    1    1    2  501    0 -0.21685252442E+01  0.55205103221E-01  0.25171226183E+02  0.25264524207E+02  0.25500000000E-02 0.  1.
         -2    1    1    2    0  501  0.21685252442E+01 -0.55205103221E-01  0.91605071819E+01  0.94138434058E+01  0.25500000000E-02 0. -1.
<mgrwt>
<rscale>  0 0.21692293E+01</rscale>
<asrwt>0</asrwt>
<pdfrwt beam="1">0</pdfrwt>
<pdfrwt beam="2">0</pdfrwt>
<totfact> 0.24479872E+12</totfact>
</mgrwt>
</event>
<event>
 4    1  0.3281603E+006  0.3027761E+01  0.7546771E-02  0.2513479E+00
         22   -1    0    0    0    0  0.00000000000E+00  0.00000000000E+00  0.38367671353E+02  0.38367671353E+02  0.00000000000E+00 0.  1.
         22   -1    0    0    0    0 -0.00000000000E+00 -0.00000000000E+00 -0.26196108491E+00  0.26196108491E+00  0.00000000000E+00 0. -1.
          2    1    1    2  501    0 -0.28369786373E+01  0.10577723663E+01  0.24779401500E+02  0.24963695146E+02  0.25500000000E-02 0.  1.
         -2    1    1    2    0  501  0.28369786373E+01 -0.10577723663E+01  0.13326308768E+02  0.13665937291E+02  0.25500000000E-02 0. -1.
<mgrwt>
<rscale>  0 0.30277610E+01</rscale>
<asrwt>0</asrwt>
<pdfrwt beam="1">0</pdfrwt>
<pdfrwt beam="2">0</pdfrwt>
<totfact> 0.13462562E+12</totfact>
</mgrwt>
</event>
<event>
 4    1  0.3281603E+006  0.2138484E+01  0.7546771E-02  0.2893133E+00
         22   -1    0    0    0    0  0.00000000000E+00  0.00000000000E+00  0.62457317865E+02  0.62457317865E+02  0.00000000000E+00 0. -1.
         22   -1    0    0    0    0 -0.00000000000E+00 -0.00000000000E+00 -0.21613746950E+00  0.21613746950E+00  0.00000000000E+00 0.  1.
          2    1    1    2  501    0  0.48122094671E+00  0.20836344785E+01  0.56602475982E+02  0.56642858332E+02  0.25500000000E-02 0. -1.
         -2    1    1    2    0  501 -0.48122094671E+00 -0.20836344785E+01  0.56387044134E+01  0.60305970023E+01  0.25500000000E-02 0.  1.
<mgrwt>
<rscale>  0 0.21384837E+01</rscale>
<asrwt>0</asrwt>
<pdfrwt beam="1">0</pdfrwt>
<pdfrwt beam="2">0</pdfrwt>
<totfact> 0.87832832E+11</totfact>
</mgrwt>
</event>
<event>
 4    1  0.3281603E+006  0.2782435E+01  0.7546771E-02  0.2595751E+00
         22   -1    0    0    0    0  0.00000000000E+00  0.00000000000E+00  0.21707605446E+01  0.21707605446E+01  0.00000000000E+00 0. -1.
         22   -1    0    0    0    0 -0.00000000000E+00 -0.00000000000E+00 -0.38495518223E+01  0.38495518223E+01  0.00000000000E+00 0.  1.
          2    1    1    2  501    0  0.24741170492E+01  0.12730604084E+01 -0.23108938673E-01  0.27825309526E+01  0.25500000000E-02 0. -1.
         -2    1    1    2    0  501 -0.24741170492E+01 -0.12730604084E+01 -0.16556823390E+01  0.32377814143E+01  0.25500000000E-02 0.  1.
<mgrwt>
<rscale>  0 0.27824350E+01</rscale>
<asrwt>0</asrwt>
<pdfrwt beam="1">0</pdfrwt>
<pdfrwt beam="2">0</pdfrwt>
<totfact> 0.20302156E+12</totfact>
</mgrwt>
</event>
<event>
 4    1  0.3281603E+006  0.2148684E+01  0.7546771E-02  0.2887114E+00
         22   -1    0    0    0    0  0.00000000000E+00  0.00000000000E+00  0.12154828256E+01  0.12154828256E+01  0.00000000000E+00 0. -1.
         22   -1    0    0    0    0 -0.00000000000E+00 -0.00000000000E+00 -0.58469691019E+01  0.58469691019E+01  0.00000000000E+00 0.  1.
          2    1    1    2  501    0 -0.16797319539E+01  0.13399020053E+01 -0.22553523197E+00  0.21604882467E+01  0.25500000000E-02 0. -1.
         -2    1    1    2    0  501  0.16797319539E+01 -0.13399020053E+01 -0.44059510443E+01  0.49019636808E+01  0.25500000000E-02 0.  1.
<mgrwt>
<rscale>  0 0.21486841E+01</rscale>
<asrwt>0</asrwt>
<pdfrwt beam="1">0</pdfrwt>
<pdfrwt beam="2">0</pdfrwt>
<totfact> 0.24164812E+12</totfact>
</mgrwt>
</event>
<event>
 4    1  0.3281603E+006  0.2499391E+01  0.7546771E-02  0.2708798E+00
         22   -1    0    0    0    0  0.00000000000E+00  0.00000000000E+00  0.35014228396E+01  0.35014228396E+01  0.00000000000E+00 0.  1.
         22   -1    0    0    0    0 -0.00000000000E+00 -0.00000000000E+00 -0.26217408203E+01  0.26217408203E+01  0.00000000000E+00 0. -1.
          2    1    1    2  501    0  0.14457470897E+01 -0.20388149916E+01  0.21703536848E+01  0.33101952868E+01  0.25500000000E-02 0.  1.
         -2    1    1    2    0  501 -0.14457470897E+01  0.20388149916E+01 -0.12906716655E+01  0.28129683731E+01  0.25500000000E-02 0. -1.
<mgrwt>
<rscale>  0 0.24993915E+01</rscale>
<asrwt>0</asrwt>
<pdfrwt beam="1">0</pdfrwt>
<pdfrwt beam="2">0</pdfrwt>
<totfact> 0.18222731E+12</totfact>
</mgrwt>
</event>
<event>
 4    1  0.3281603E+006  0.6748484E+01  0.7546771E-02  0.1958422E+00
         22   -1    0    0    0    0  0.00000000000E+00  0.00000000000E+00  0.18562578927E+02  0.18562578927E+02  0.00000000000E+00 0. -1.
         22   -1    0    0    0    0 -0.00000000000E+00 -0.00000000000E+00 -0.32701946890E+01  0.32701946890E+01  0.00000000000E+00 0.  1.
          2    1    1    2  501    0  0.80804161275E+00  0.66999325046E+01  0.13101759694E+02  0.14737643652E+02  0.25500000000E-02 0. -1.
         -2    1    1    2    0  501 -0.80804161275E+00 -0.66999325046E+01  0.21906245434E+01  0.70951299640E+01  0.25500000000E-02 0.  1.
<mgrwt>
<rscale>  0 0.67484838E+01</rscale>
<asrwt>0</asrwt>
<pdfrwt beam="1">0</pdfrwt>
<pdfrwt beam="2">0</pdfrwt>
<totfact> 0.18907577E+11</totfact>
</mgrwt>
</event>
<event>
 4    1  0.3281603E+006  0.2831470E+01  0.7546771E-02  0.2578278E+00
         22   -1    0    0    0    0  0.00000000000E+00  0.00000000000E+00  0.32044509356E+02  0.32044509356E+02  0.00000000000E+00 0. -1.
         22   -1    0    0    0    0 -0.00000000000E+00 -0.00000000000E+00 -0.25500507022E+00  0.25500507022E+00  0.00000000000E+00 0.  1.
          2    1    1    2  501    0 -0.22522360134E+01  0.17159970794E+01  0.13675597156E+02  0.13965642739E+02  0.25500000000E-02 0.  1.
         -2    1    1    2    0  501  0.22522360134E+01 -0.17159970794E+01  0.18113907129E+02  0.18333871687E+02  0.25500000000E-02 0. -1.
<mgrwt>
<rscale>  0 0.28314695E+01</rscale>
<asrwt>0</asrwt>
<pdfrwt beam="1">0</pdfrwt>
<pdfrwt beam="2">0</pdfrwt>
<totfact> 0.17492014E+12</totfact>
</mgrwt>
</event>
<event>
 4    1  0.3281603E+006  0.3296396E+01  0.7546771E-02  0.2436073E+00
         22   -1    0    0    0    0  0.00000000000E+00  0.00000000000E+00  0.64765520852E+01  0.64765520852E+01  0.00000000000E+00 0. -1.
         22   -1    0    0    0    0 -0.00000000000E+00 -0.00000000000E+00 -0.17394816609E+01  0.17394816609E+01  0.00000000000E+00 0.  1.
          2    1    1    2  501    0 -0.32671861807E+01 -0.43785449884E+00  0.31422327890E+01  0.45541031504E+01  0.25500000000E-02 0. -1.
         -2    1    1    2    0  501  0.32671861807E+01  0.43785449884E+00  0.15948376353E+01  0.36619305956E+01  0.25500000000E-02 0.  1.
<mgrwt>
<rscale>  0 0.32963963E+01</rscale>
<asrwt>0</asrwt>
<pdfrwt beam="1">0</pdfrwt>
<pdfrwt beam="2">0</pdfrwt>
<totfact> 0.14167410E+12</totfact>
</mgrwt>
</event>
<event>
 4    1  0.3281603E+006  0.2391386E+01  0.7546771E-02  0.2758441E+00
         22   -1    0    0    0    0  0.00000000000E+00  0.00000000000E+00  0.88032351464E+00  0.88032351464E+00  0.00000000000E+00 0.  1.
         22   -1    0    0    0    0 -0.00000000000E+00 -0.00000000000E+00 -0.64962599618E+01  0.64962599618E+01  0.00000000000E+00 0. -1.
          2    1    1    2  501    0  0.35996309086E+00  0.23641379146E+01 -0.27939685535E+01  0.36776335171E+01  0.25500000000E-02 0.  1.
         -2    1    1    2    0  501 -0.35996309086E+00 -0.23641379146E+01 -0.28219678937E+01  0.36989499593E+01  0.25500000000E-02 0. -1.
<mgrwt>
<rscale>  0 0.23913862E+01</rscale>
<asrwt>0</asrwt>
<pdfrwt beam="1">0</pdfrwt>
<pdfrwt beam="2">0</pdfrwt>
<totfact> 0.30818525E+12</totfact>
</mgrwt>
</event>
<event>
 4    1  0.3281603E+006  0.2206564E+01  0.7546771E-02  0.2853979E+00
         22   -1    0    0    0    0  0.00000000000E+00  0.00000000000E+00  0.23198323621E+00  0.23198323621E+00  0.00000000000E+00 0.  1.
         22   -1    0    0    0    0 -0.00000000000E+00 -0.00000000000E+00 -0.40374422875E+02  0.40374422875E+02  0.00000000000E+00 0. -1.
          2    1    1    2  501    0 -0.17934875164E+01  0.12854259962E+01 -0.60024103651E+01  0.63951430130E+01  0.25500000000E-02 0.  1.
         -2    1    1    2    0  501  0.17934875164E+01 -0.12854259962E+01 -0.34140029274E+02  0.34211263098E+02  0.25500000000E-02 0. -1.
<mgrwt>
<rscale>  0 0.22065638E+01</rscale>
<asrwt>0</asrwt>
<pdfrwt beam="1">0</pdfrwt>
<pdfrwt beam="2">0</pdfrwt>
<totfact> 0.14435179E+12</totfact>
</mgrwt>
</event>
<event>
 4    1  0.3281603E+006  0.2390147E+01  0.7546771E-02  0.2759035E+00
         22   -1    0    0    0    0  0.00000000000E+00  0.00000000000E+00  0.93594046316E+01  0.93594046316E+01  0.00000000000E+00 0. -1.
         22   -1    0    0    0    0 -0.00000000000E+00 -0.00000000000E+00 -0.40304913593E+01  0.40304913593E+01  0.00000000000E+00 0.  1.
          2    1    1    2  501    0 -0.23534599202E+00 -0.23785309023E+01  0.88316599452E+01  0.91493727041E+01  0.25500000000E-02 0. -1.
         -2    1    1    2    0  501  0.23534599202E+00  0.23785309023E+01 -0.35027466729E+01  0.42405232868E+01  0.25500000000E-02 0.  1.
<mgrwt>
<rscale>  0 0.23901472E+01</rscale>
<asrwt>0</asrwt>
<pdfrwt beam="1">0</pdfrwt>
<pdfrwt beam="2">0</pdfrwt>
<totfact> 0.34211447E+11</totfact>
</mgrwt>
</event>
<event>
 4    1  0.3281603E+006  0.2270880E+01  0.7546771E-02  0.2819057E+00
         22   -1    0    0    0    0  0.00000000000E+00  0.00000000000E+00  0.17700582349E+02  0.17700582349E+02  0.00000000000E+00 0. -1.
         22   -1    0    0    0    0 -0.00000000000E+00 -0.00000000000E+00 -0.52624630559E+00  0.52624630559E+00  0.00000000000E+00 0.  1.
          2    1    1    2  501    0 -0.15313170924E+01  0.16768891134E+01  0.14675993217E+02  0.14850645526E+02  0.25500000000E-02 0. -1.
         -2    1    1    2    0  501  0.15313170924E+01 -0.16768891134E+01  0.24983428266E+01  0.33761831286E+01  0.25500000000E-02 0.  1.
<mgrwt>
<rscale>  0 0.22708799E+01</rscale>
<asrwt>0</asrwt>
<pdfrwt beam="1">0</pdfrwt>
<pdfrwt beam="2">0</pdfrwt>
<totfact> 0.16348692E+12</totfact>
</mgrwt>
</event>
<event>
 4    1  0.3281603E+006  0.5323008E+01  0.7546771E-02  0.2086313E+00
         22   -1    0    0    0    0  0.00000000000E+00  0.00000000000E+00  0.11850782750E+02  0.11850782750E+02  0.00000000000E+00 0. -1.
         22   -1    0    0    0    0 -0.00000000000E+00 -0.00000000000E+00 -0.51908804843E+01  0.51908804843E+01  0.00000000000E+00 0.  1.
          2    1    1    2  501    0 -0.12125688242E+01 -0.51830572976E+01  0.95879648252E+01  0.10966470813E+02  0.25500000000E-02 0. -1.
         -2    1    1    2    0  501  0.12125688242E+01  0.51830572976E+01 -0.29280625593E+01  0.60751924214E+01  0.25500000000E-02 0.  1.
<mgrwt>
<rscale>  0 0.53230079E+01</rscale>
<asrwt>0</asrwt>
<pdfrwt beam="1">0</pdfrwt>
<pdfrwt beam="2">0</pdfrwt>
<totfact> 0.19056946E+11</totfact>
</mgrwt>
</event>
<event>
 4    1  0.3281603E+006  0.2014240E+01  0.7546771E-02  0.2971179E+00
         22   -1    0    0    0    0  0.00000000000E+00  0.00000000000E+00  0.37918280645E+02  0.37918280645E+02  0.00000000000E+00 0. -1.
         22   -1    0    0    0    0 -0.00000000000E+00 -0.00000000000E+00 -0.27330316016E+00  0.27330316016E+00  0.00000000000E+00 0.  1.
          2    1    1    2  501    0 -0.14394064993E+01 -0.14089950481E+01  0.33718457244E+02  0.33778566037E+02  0.25500000000E-02 0. -1.
         -2    1    1    2    0  501  0.14394064993E+01  0.14089950481E+01  0.39265202412E+01  0.44130177682E+01  0.25500000000E-02 0.  1.
<mgrwt>
<rscale>  0 0.20142405E+01</rscale>
<asrwt>0</asrwt>
<pdfrwt beam="1">0</pdfrwt>
<pdfrwt beam="2">0</pdfrwt>
<totfact> 0.13034002E+12</totfact>
</mgrwt>
</event>
<event>
 4    1  0.3281603E+006  0.2022600E+01  0.7546771E-02  0.2965635E+00
         22   -1    0    0    0    0  0.00000000000E+00  0.00000000000E+00  0.42967302061E+01  0.42967302061E+01  0.00000000000E+00 0. -1.
         22   -1    0    0    0    0 -0.00000000000E+00 -0.00000000000E+00 -0.18703181907E+01  0.18703181907E+01  0.00000000000E+00 0.  1.
          2    1    1    2  501    0 -0.20122429475E+01  0.20440813258E+00  0.33737488689E+01  0.39335851710E+01  0.25500000000E-02 0. -1.
         -2    1    1    2    0  501  0.20122429475E+01 -0.20440813258E+00 -0.94733685356E+00  0.22334632258E+01  0.25500000000E-02 0.  1.
<mgrwt>
<rscale>  0 0.20226000E+01</rscale>
<asrwt>0</asrwt>
<pdfrwt beam="1">0</pdfrwt>
<pdfrwt beam="2">0</pdfrwt>
<totfact> 0.21193568E+12</totfact>
</mgrwt>
</event>
<event>
 4    1  0.3281603E+006  0.2182942E+01  0.7546771E-02  0.2867298E+00
         22   -1    0    0    0    0  0.00000000000E+00  0.00000000000E+00  0.15224604961E+01  0.15224604961E+01  0.00000000000E+00 0. -1.
         22   -1    0    0    0    0 -0.00000000000E+00 -0.00000000000E+00 -0.34656683975E+01  0.34656683975E+01  0.00000000000E+00 0.  1.
          2    1    1    2  501    0  0.15726616416E+01 -0.15139236173E+01 -0.19536179815E+00  0.21916665104E+01  0.25500000000E-02 0. -1.
         -2    1    1    2    0  501 -0.15726616416E+01  0.15139236173E+01 -0.17478461032E+01  0.27964623832E+01  0.25500000000E-02 0.  1.
<mgrwt>
<rscale>  0 0.21829420E+01</rscale>
<asrwt>0</asrwt>
<pdfrwt beam="1">0</pdfrwt>
<pdfrwt beam="2">0</pdfrwt>
<totfact> 0.34597776E+12</totfact>
</mgrwt>
</event>
<event>
 4    1  0.3281603E+006  0.6048831E+01  0.7546771E-02  0.2015336E+00
         22   -1    0    0    0    0  0.00000000000E+00  0.00000000000E+00  0.85856116179E+01  0.85856116179E+01  0.00000000000E+00 0.  1.
         22   -1    0    0    0    0 -0.00000000000E+00 -0.00000000000E+00 -0.96689536731E+01  0.96689536731E+01  0.00000000000E+00 0. -1.
          2    1    1    2  501    0 -0.60464579692E+01 -0.16940919800E+00  0.62839871246E+01  0.87222046602E+01  0.25500000000E-02 0.  1.
         -2    1    1    2    0  501  0.60464579692E+01  0.16940919800E+00 -0.73673291799E+01  0.95323606308E+01  0.25500000000E-02 0. -1.
<mgrwt>
<rscale>  0 0.60488313E+01</rscale>
<asrwt>0</asrwt>
<pdfrwt beam="1">0</pdfrwt>
<pdfrwt beam="2">0</pdfrwt>
<totfact> 0.13375173E+11</totfact>
</mgrwt>
</event>
<event>
 4    1  0.3281603E+006  0.8889952E+01  0.7546771E-02  0.1828829E+00
         22   -1    0    0    0    0  0.00000000000E+00  0.00000000000E+00  0.51790428895E+02  0.51790428895E+02  0.00000000000E+00 0.  1.
         22   -1    0    0    0    0 -0.00000000000E+00 -0.00000000000E+00 -0.23030898872E+01  0.23030898872E+01  0.00000000000E+00 0. -1.
          2    1    1    2  501    0 -0.29785183798E+01  0.83761371869E+01  0.40454549267E+02  0.41419823862E+02  0.25500000000E-02 0.  1.
         -2    1    1    2    0  501  0.29785183798E+01 -0.83761371869E+01  0.90327897413E+01  0.12673694920E+02  0.25500000000E-02 0. -1.
<mgrwt>
<rscale>  0 0.88899523E+01</rscale>
<asrwt>0</asrwt>
<pdfrwt beam="1">0</pdfrwt>
<pdfrwt beam="2">0</pdfrwt>
<totfact> 0.76614262E+10</totfact>
</mgrwt>
</event>
<event>
 4    1  0.3281603E+006  0.2105944E+01  0.7546771E-02  0.2912709E+00
         22   -1    0    0    0    0  0.00000000000E+00  0.00000000000E+00  0.33326618052E+01  0.33326618052E+01  0.00000000000E+00 0. -1.
         22   -1    0    0    0    0 -0.00000000000E+00 -0.00000000000E+00 -0.40756263950E+01  0.40756263950E+01  0.00000000000E+00 0.  1.
          2    1    1    2  501    0  0.20094270021E+01 -0.63023575046E+00  0.26683571332E+01  0.33992837879E+01  0.25500000000E-02 0. -1.
         -2    1    1    2    0  501 -0.20094270021E+01  0.63023575046E+00 -0.34113217229E+01  0.40090044123E+01  0.25500000000E-02 0.  1.
<mgrwt>
<rscale>  0 0.21059441E+01</rscale>
<asrwt>0</asrwt>
<pdfrwt beam="1">0</pdfrwt>
<pdfrwt beam="2">0</pdfrwt>
<totfact> 0.11518860E+12</totfact>
</mgrwt>
</event>
<event>
 4    1  0.3281603E+006  0.4406554E+01  0.7546771E-02  0.2205722E+00
         22   -1    0    0    0    0  0.00000000000E+00  0.00000000000E+00  0.94094652822E+00  0.94094652822E+00  0.00000000000E+00 0. -1.
         22   -1    0    0    0    0 -0.00000000000E+00 -0.00000000000E+00 -0.23298144776E+02  0.23298144776E+02  0.00000000000E+00 0.  1.
          2    1    1    2  501    0  0.30679151002E+01 -0.31631637737E+01 -0.70821095950E+01  0.83411025014E+01  0.25500000000E-02 0. -1.
         -2    1    1    2    0  501 -0.30679151002E+01  0.31631637737E+01 -0.15275088653E+02  0.15897988803E+02  0.25500000000E-02 0.  1.
<mgrwt>
<rscale>  0 0.44065536E+01</rscale>
<asrwt>0</asrwt>
<pdfrwt beam="1">0</pdfrwt>
<pdfrwt beam="2">0</pdfrwt>
<totfact> 0.59987728E+11</totfact>
</mgrwt>
</event>
<event>
 4    1  0.3281603E+006  0.2430773E+01  0.7546771E-02  0.2739860E+00
         22   -1    0    0    0    0  0.00000000000E+00  0.00000000000E+00  0.57099368817E+00  0.57099368817E+00  0.00000000000E+00 0. -1.
         22   -1    0    0    0    0 -0.00000000000E+00 -0.00000000000E+00 -0.15009929401E+02  0.15009929401E+02  0.00000000000E+00 0.  1.
          2    1    1    2  501    0  0.23416028810E+01 -0.65233981118E+00 -0.28778111806E+01  0.37670220301E+01  0.25500000000E-02 0. -1.
         -2    1    1    2    0  501 -0.23416028810E+01  0.65233981118E+00 -0.11561124533E+02  0.11813901060E+02  0.25500000000E-02 0.  1.
<mgrwt>
<rscale>  0 0.24307731E+01</rscale>
<asrwt>0</asrwt>
<pdfrwt beam="1">0</pdfrwt>
<pdfrwt beam="2">0</pdfrwt>
<totfact> 0.18275191E+12</totfact>
</mgrwt>
</event>
<event>
 4    1  0.3281603E+006  0.2932271E+01  0.7546771E-02  0.2544026E+00
         22   -1    0    0    0    0  0.00000000000E+00  0.00000000000E+00  0.56344205923E+01  0.56344205923E+01  0.00000000000E+00 0.  1.
         22   -1    0    0    0    0 -0.00000000000E+00 -0.00000000000E+00 -0.19599226148E+01  0.19599226148E+01  0.00000000000E+00 0. -1.
          2    1    1    2  501    0 -0.25620816459E+01  0.14261633640E+01  0.36238984680E+01  0.46616360765E+01  0.25500000000E-02 0.  1.
         -2    1    1    2    0  501  0.25620816459E+01 -0.14261633640E+01  0.50599509523E-01  0.29327071306E+01  0.25500000000E-02 0. -1.
<mgrwt>
<rscale>  0 0.29322706E+01</rscale>
<asrwt>0</asrwt>
<pdfrwt beam="1">0</pdfrwt>
<pdfrwt beam="2">0</pdfrwt>
<totfact> 0.14569300E+12</totfact>
</mgrwt>
</event>
<event>
 4    1  0.3281603E+006  0.2578136E+01  0.7546771E-02  0.2675053E+00
         22   -1    0    0    0    0  0.00000000000E+00  0.00000000000E+00  0.13556886169E+01  0.13556886169E+01  0.00000000000E+00 0. -1.
         22   -1    0    0    0    0 -0.00000000000E+00 -0.00000000000E+00 -0.51450085635E+01  0.51450085635E+01  0.00000000000E+00 0.  1.
          2    1    1    2  501    0  0.85568152632E+00  0.24319929822E+01 -0.11895543334E+01  0.28393356185E+01  0.25500000000E-02 0. -1.
         -2    1    1    2    0  501 -0.85568152632E+00 -0.24319929822E+01 -0.25997656133E+01  0.36613615618E+01  0.25500000000E-02 0.  1.
<mgrwt>
<rscale>  0 0.25781364E+01</rscale>
<asrwt>0</asrwt>
<pdfrwt beam="1">0</pdfrwt>
<pdfrwt beam="2">0</pdfrwt>
<totfact> 0.24817679E+12</totfact>
</mgrwt>
</event>
<event>
 4    1  0.3281603E+006  0.2668029E+01  0.7546771E-02  0.2638787E+00
         22   -1    0    0    0    0  0.00000000000E+00  0.00000000000E+00  0.22562608607E+01  0.22562608607E+01  0.00000000000E+00 0. -1.
         22   -1    0    0    0    0 -0.00000000000E+00 -0.00000000000E+00 -0.49752795841E+01  0.49752795841E+01  0.00000000000E+00 0.  1.
          2    1    1    2  501    0  0.24740802086E+01 -0.99864811353E+00  0.82758623931E+00  0.27934345203E+01  0.25500000000E-02 0. -1.
         -2    1    1    2    0  501 -0.24740802086E+01  0.99864811353E+00 -0.35466049627E+01  0.44381059245E+01  0.25500000000E-02 0.  1.
<mgrwt>
<rscale>  0 0.26680288E+01</rscale>
<asrwt>0</asrwt>
<pdfrwt beam="1">0</pdfrwt>
<pdfrwt beam="2">0</pdfrwt>
<totfact> 0.14343626E+12</totfact>
</mgrwt>
</event>
<event>
 4    1  0.3281603E+006  0.2197973E+01  0.7546771E-02  0.2858791E+00
         22   -1    0    0    0    0  0.00000000000E+00  0.00000000000E+00  0.68023343283E+00  0.68023343283E+00  0.00000000000E+00 0. -1.
         22   -1    0    0    0    0 -0.00000000000E+00 -0.00000000000E+00 -0.76800504137E+01  0.76800504137E+01  0.00000000000E+00 0.  1.
          2    1    1    2  501    0  0.62304659148E-02 -0.21979629108E+01 -0.46466196841E+01  0.51402490958E+01  0.25500000000E-02 0. -1.
         -2    1    1    2    0  501 -0.62304659148E-02  0.21979629108E+01 -0.23531972968E+01  0.32200347508E+01  0.25500000000E-02 0.  1.
<mgrwt>
<rscale>  0 0.21979732E+01</rscale>
<asrwt>0</asrwt>
<pdfrwt beam="1">0</pdfrwt>
<pdfrwt beam="2">0</pdfrwt>
<totfact> 0.33817128E+12</totfact>
</mgrwt>
</event>
<event>
 4    1  0.3281603E+006  0.2525596E+01  0.7546771E-02  0.2697352E+00
         22   -1    0    0    0    0  0.00000000000E+00  0.00000000000E+00  0.68107254643E+01  0.68107254643E+01  0.00000000000E+00 0.  1.
         22   -1    0    0    0    0 -0.00000000000E+00 -0.00000000000E+00 -0.38110525424E+01  0.38110525424E+01  0.00000000000E+00 0. -1.
          2    1    1    2  501    0 -0.18308986584E+01 -0.17396668901E+01  0.61122211785E+01  0.66134624081E+01  0.25500000000E-02 0.  1.
         -2    1    1    2    0  501  0.18308986584E+01  0.17396668901E+01 -0.31125482566E+01  0.40083155986E+01  0.25500000000E-02 0. -1.
<mgrwt>
<rscale>  0 0.25255964E+01</rscale>
<asrwt>0</asrwt>
<pdfrwt beam="1">0</pdfrwt>
<pdfrwt beam="2">0</pdfrwt>
<totfact> 0.53534350E+11</totfact>
</mgrwt>
</event>
<event>
 4    1  0.3281603E+006  0.2292346E+01  0.7546771E-02  0.2807818E+00
         22   -1    0    0    0    0  0.00000000000E+00  0.00000000000E+00  0.54116859254E-01  0.54116859254E-01  0.00000000000E+00 0.  1.
         22   -1    0    0    0    0 -0.00000000000E+00 -0.00000000000E+00 -0.10054692465E+03  0.10054692465E+03  0.00000000000E+00 0. -1.
          2    1    1    2  501    0  0.22815271595E+01 -0.22243738556E+00 -0.40935693149E+02  0.40999827130E+02  0.25500000000E-02 0.  1.
         -2    1    1    2    0  501 -0.22815271595E+01  0.22243738556E+00 -0.59557114640E+02  0.59601214377E+02  0.25500000000E-02 0. -1.
<mgrwt>
<rscale>  0 0.22923462E+01</rscale>
<asrwt>0</asrwt>
<pdfrwt beam="1">0</pdfrwt>
<pdfrwt beam="2">0</pdfrwt>
<totfact> 0.21181212E+12</totfact>
</mgrwt>
</event>
<event>
 4    1  0.3281603E+006  0.2076867E+01  0.7546771E-02  0.2930704E+00
         22   -1    0    0    0    0  0.00000000000E+00  0.00000000000E+00  0.33456293443E+01  0.33456293443E+01  0.00000000000E+00 0. -1.
         22   -1    0    0    0    0 -0.00000000000E+00 -0.00000000000E+00 -0.57561926084E+01  0.57561926084E+01  0.00000000000E+00 0.  1.
          2    1    1    2  501    0 -0.14636516960E+01 -0.14734635226E+01  0.28037132858E+01  0.34891525806E+01  0.25500000000E-02 0. -1.
         -2    1    1    2    0  501  0.14636516960E+01  0.14734635226E+01 -0.52142765498E+01  0.56126693721E+01  0.25500000000E-02 0.  1.
<mgrwt>
<rscale>  0 0.20768672E+01</rscale>
<asrwt>0</asrwt>
<pdfrwt beam="1">0</pdfrwt>
<pdfrwt beam="2">0</pdfrwt>
<totfact> 0.76216705E+11</totfact>
</mgrwt>
</event>
<event>
 4    1  0.3281603E+006  0.2298647E+01  0.7546771E-02  0.2804557E+00
         22   -1    0    0    0    0  0.00000000000E+00  0.00000000000E+00  0.20785375152E+00  0.20785375152E+00  0.00000000000E+00 0. -1.
         22   -1    0    0    0    0 -0.00000000000E+00 -0.00000000000E+00 -0.25548216267E+02  0.25548216267E+02  0.00000000000E+00 0.  1.
          2    1    1    2  501    0  0.12354700344E+01  0.19383973567E+01 -0.11760182291E+02  0.11982723586E+02  0.25500000000E-02 0. -1.
         -2    1    1    2    0  501 -0.12354700344E+01 -0.19383973567E+01 -0.13580180225E+02  0.13773346433E+02  0.25500000000E-02 0.  1.
<mgrwt>
<rscale>  0 0.22986468E+01</rscale>
<asrwt>0</asrwt>
<pdfrwt beam="1">0</pdfrwt>
<pdfrwt beam="2">0</pdfrwt>
<totfact> 0.29315510E+12</totfact>
</mgrwt>
</event>
<event>
 4    1  0.3281603E+006  0.3686611E+01  0.7546771E-02  0.2341526E+00
         22   -1    0    0    0    0  0.00000000000E+00  0.00000000000E+00  0.48207099604E+00  0.48207099604E+00  0.00000000000E+00 0.  1.
         22   -1    0    0    0    0 -0.00000000000E+00 -0.00000000000E+00 -0.50108822691E+02  0.50108822691E+02  0.00000000000E+00 0. -1.
          2    1    1    2  501    0  0.34582499827E+01  0.12773401983E+01 -0.80846559393E+01  0.88855365107E+01  0.25500000000E-02 0.  1.
         -2    1    1    2    0  501 -0.34582499827E+01 -0.12773401983E+01 -0.41542095756E+02  0.41705357176E+02  0.25500000000E-02 0. -1.
<mgrwt>
<rscale>  0 0.36866106E+01</rscale>
<asrwt>0</asrwt>
<pdfrwt beam="1">0</pdfrwt>
<pdfrwt beam="2">0</pdfrwt>
<totfact> 0.47861779E+11</totfact>
</mgrwt>
</event>
<event>
 4    1  0.3281603E+006  0.2144585E+01  0.7546771E-02  0.2889526E+00
         22   -1    0    0    0    0  0.00000000000E+00  0.00000000000E+00  0.24471545921E+00  0.24471545921E+00  0.00000000000E+00 0. -1.
         22   -1    0    0    0    0 -0.00000000000E+00 -0.00000000000E+00 -0.25510222032E+02  0.25510222032E+02  0.00000000000E+00 0.  1.
          2    1    1    2  501    0  0.15774185891E+01 -0.14529240342E+01 -0.60253967774E+01  0.63956743571E+01  0.25500000000E-02 0. -1.
         -2    1    1    2    0  501 -0.15774185891E+01  0.14529240342E+01 -0.19240109795E+02  0.19359263134E+02  0.25500000000E-02 0.  1.
<mgrwt>
<rscale>  0 0.21445848E+01</rscale>
<asrwt>0</asrwt>
<pdfrwt beam="1">0</pdfrwt>
<pdfrwt beam="2">0</pdfrwt>
<totfact> 0.24472962E+12</totfact>
</mgrwt>
</event>
<event>
 4    1  0.3281603E+006  0.3156398E+01  0.7546771E-02  0.2474954E+00
         22   -1    0    0    0    0  0.00000000000E+00  0.00000000000E+00  0.65957940379E+02  0.65957940379E+02  0.00000000000E+00 0. -1.
         22   -1    0    0    0    0 -0.00000000000E+00 -0.00000000000E+00 -0.31001041807E+01  0.31001041807E+01  0.00000000000E+00 0.  1.
          2    1    1    2  501    0  0.25976838549E-01 -0.31562903348E+01  0.65106245629E+02  0.65182712968E+02  0.25500000000E-02 0. -1.
         -2    1    1    2    0  501 -0.25976838549E-01  0.31562903348E+01 -0.22484094307E+01  0.38753315915E+01  0.25500000000E-02 0.  1.
<mgrwt>
<rscale>  0 0.31563983E+01</rscale>
<asrwt>0</asrwt>
<pdfrwt beam="1">0</pdfrwt>
<pdfrwt beam="2">0</pdfrwt>
<totfact> 0.39235472E+10</totfact>
</mgrwt>
</event>
<event>
 4    1  0.3281603E+006  0.1101178E+02  0.7546771E-02  0.1739781E+00
         22   -1    0    0    0    0  0.00000000000E+00  0.00000000000E+00  0.46918932674E+02  0.46918932674E+02  0.00000000000E+00 0. -1.
         22   -1    0    0    0    0 -0.00000000000E+00 -0.00000000000E+00 -0.62441518087E+01  0.62441518087E+01  0.00000000000E+00 0.  1.
          2    1    1    2  501    0  0.10919977629E+02  0.14189475699E+01  0.40687496856E+02  0.42151295716E+02  0.25500000000E-02 0. -1.
         -2    1    1    2    0  501 -0.10919977629E+02 -0.14189475699E+01 -0.12715991031E-01  0.11011788766E+02  0.25500000000E-02 0.  1.
<mgrwt>
<rscale>  0 0.11011781E+02</rscale>
<asrwt>0</asrwt>
<pdfrwt beam="1">0</pdfrwt>
<pdfrwt beam="2">0</pdfrwt>
<totfact> 0.27016742E+10</totfact>
</mgrwt>
</event>
<event>
 4    1  0.3281603E+006  0.2009289E+01  0.7546771E-02  0.2974485E+00
         22   -1    0    0    0    0  0.00000000000E+00  0.00000000000E+00  0.34605106332E+01  0.34605106332E+01  0.00000000000E+00 0.  1.
         22   -1    0    0    0    0 -0.00000000000E+00 -0.00000000000E+00 -0.30896810746E+01  0.30896810746E+01  0.00000000000E+00 0. -1.
          2    1    1    2  501    0 -0.18757132045E+01  0.72037177623E+00  0.27692161425E+01  0.34213740029E+01  0.25500000000E-02 0.  1.
         -2    1    1    2    0  501  0.18757132045E+01 -0.72037177623E+00 -0.23983865839E+01  0.31288177048E+01  0.25500000000E-02 0. -1.
<mgrwt>
<rscale>  0 0.20092889E+01</rscale>
<asrwt>0</asrwt>
<pdfrwt beam="1">0</pdfrwt>
<pdfrwt beam="2">0</pdfrwt>
<totfact> 0.15252520E+12</totfact>
</mgrwt>
</event>
<event>
 4    1  0.3281603E+006  0.2334028E+01  0.7546771E-02  0.2786555E+00
         22   -1    0    0    0    0  0.00000000000E+00  0.00000000000E+00  0.36687230585E+00  0.36687230585E+00  0.00000000000E+00 0.  1.
         22   -1    0    0    0    0 -0.00000000000E+00 -0.00000000000E+00 -0.19925590568E+02  0.19925590568E+02  0.00000000000E+00 0. -1.
          2    1    1    2  501    0  0.20893295834E+01  0.10403766391E+01 -0.14900716499E+02  0.15082408307E+02  0.25500000000E-02 0.  1.
         -2    1    1    2    0  501 -0.20893295834E+01 -0.10403766391E+01 -0.46580017629E+01  0.52100545664E+01  0.25500000000E-02 0. -1.
<mgrwt>
<rscale>  0 0.23340283E+01</rscale>
<asrwt>0</asrwt>
<pdfrwt beam="1">0</pdfrwt>
<pdfrwt beam="2">0</pdfrwt>
<totfact> 0.21190931E+12</totfact>
</mgrwt>
</event>
<event>
 4    1  0.3281603E+006  0.2891843E+01  0.7546771E-02  0.2557504E+00
         22   -1    0    0    0    0  0.00000000000E+00  0.00000000000E+00  0.12970328968E+01  0.12970328968E+01  0.00000000000E+00 0. -1.
         22   -1    0    0    0    0 -0.00000000000E+00 -0.00000000000E+00 -0.11451739476E+02  0.11451739476E+02  0.00000000000E+00 0.  1.
          2    1    1    2  501    0 -0.25339440124E+01  0.13935130587E+01 -0.86361970587E+00  0.30180451291E+01  0.25500000000E-02 0. -1.
         -2    1    1    2    0  501  0.25339440124E+01 -0.13935130587E+01 -0.92910868732E+01  0.97307272437E+01  0.25500000000E-02 0.  1.
<mgrwt>
<rscale>  0 0.28918433E+01</rscale>
<asrwt>0</asrwt>
<pdfrwt beam="1">0</pdfrwt>
<pdfrwt beam="2">0</pdfrwt>
<totfact> 0.99947297E+11</totfact>
</mgrwt>
</event>
<event>
 4    1  0.3281603E+006  0.2323881E+01  0.7546771E-02  0.2791665E+00
         22   -1    0    0    0    0  0.00000000000E+00  0.00000000000E+00  0.56175229330E+00  0.56175229330E+00  0.00000000000E+00 0.  1.
         22   -1    0    0    0    0 -0.00000000000E+00 -0.00000000000E+00 -0.22813384869E+02  0.22813384869E+02  0.00000000000E+00 0. -1.
          2    1    1    2  501    0  0.23073200638E+01  0.27693346837E+00 -0.22355692692E+01  0.32246231536E+01  0.25500000000E-02 0.  1.
         -2    1    1    2    0  501 -0.23073200638E+01 -0.27693346837E+00 -0.20016063306E+02  0.20150514008E+02  0.25500000000E-02 0. -1.
<mgrwt>
<rscale>  0 0.23238813E+01</rscale>
<asrwt>0</asrwt>
<pdfrwt beam="1">0</pdfrwt>
<pdfrwt beam="2">0</pdfrwt>
<totfact> 0.11065342E+12</totfact>
</mgrwt>
</event>
<event>
 4    1  0.3281603E+006  0.3262869E+01  0.7546771E-02  0.2445116E+00
         22   -1    0    0    0    0  0.00000000000E+00  0.00000000000E+00  0.27022061480E+01  0.27022061480E+01  0.00000000000E+00 0.  1.
         22   -1    0    0    0    0 -0.00000000000E+00 -0.00000000000E+00 -0.18273820887E+02  0.18273820887E+02  0.00000000000E+00 0. -1.
          2    1    1    2  501    0  0.85315758592E-01  0.32617523218E+01  0.15030365703E+01  0.35924131752E+01  0.25500000000E-02 0.  1.
         -2    1    1    2    0  501 -0.85315758592E-01 -0.32617523218E+01 -0.17074651310E+02  0.17383613860E+02  0.25500000000E-02 0. -1.
<mgrwt>
<rscale>  0 0.32628689E+01</rscale>
<asrwt>0</asrwt>
<pdfrwt beam="1">0</pdfrwt>
<pdfrwt beam="2">0</pdfrwt>
<totfact> 0.24091337E+11</totfact>
</mgrwt>
</event>
<event>
 4    1  0.3281603E+006  0.3231525E+01  0.7546771E-02  0.2453719E+00
         22   -1    0    0    0    0  0.00000000000E+00  0.00000000000E+00  0.17795971808E+02  0.17795971808E+02  0.00000000000E+00 0. -1.
         22   -1    0    0    0    0 -0.00000000000E+00 -0.00000000000E+00 -0.77735639457E+00  0.77735639457E+00  0.00000000000E+00 0.  1.
          2    1    1    2  501    0  0.31107203547E+01 -0.87530813715E+00  0.13107176411E+02  0.13499660196E+02  0.25500000000E-02 0. -1.
         -2    1    1    2    0  501 -0.31107203547E+01  0.87530813715E+00  0.39114390026E+01  0.50736680058E+01  0.25500000000E-02 0.  1.
<mgrwt>
<rscale>  0 0.32315247E+01</rscale>
<asrwt>0</asrwt>
<pdfrwt beam="1">0</pdfrwt>
<pdfrwt beam="2">0</pdfrwt>
<totfact> 0.10436615E+12</totfact>
</mgrwt>
</event>
<event>
 4    1  0.3281603E+006  0.4088843E+01  0.7546771E-02  0.2260627E+00
         22   -1    0    0    0    0  0.00000000000E+00  0.00000000000E+00  0.10434236384E+03  0.10434236384E+03  0.00000000000E+00 0.  1.
         22   -1    0    0    0    0 -0.00000000000E+00 -0.00000000000E+00 -0.16389586108E+00  0.16389586108E+00  0.00000000000E+00 0. -1.
          2    1    1    2  501    0  0.35798863004E+01  0.19756125751E+01  0.59905430842E+02  0.60044810616E+02  0.25500000000E-02 0.  1.
         -2    1    1    2    0  501 -0.35798863004E+01 -0.19756125751E+01  0.44273037140E+02  0.44461449089E+02  0.25500000000E-02 0. -1.
<mgrwt>
<rscale>  0 0.40888430E+01</rscale>
<asrwt>0</asrwt>
<pdfrwt beam="1">0</pdfrwt>
<pdfrwt beam="2">0</pdfrwt>
<totfact> 0.58995408E+11</totfact>
</mgrwt>
</event>
<event>
 4    1  0.3281603E+006  0.2799694E+01  0.7546771E-02  0.2589538E+00
         22   -1    0    0    0    0  0.00000000000E+00  0.00000000000E+00  0.12273389762E+02  0.12273389762E+02  0.00000000000E+00 0. -1.
         22   -1    0    0    0    0 -0.00000000000E+00 -0.00000000000E+00 -0.78752969906E+00  0.78752969906E+00  0.00000000000E+00 0.  1.
          2    1    1    2  501    0  0.11145531955E+01  0.25682775899E+01  0.85824290564E+01  0.90275341935E+01  0.25500000000E-02 0. -1.
         -2    1    1    2    0  501 -0.11145531955E+01 -0.25682775899E+01  0.29034310065E+01  0.40333852675E+01  0.25500000000E-02 0.  1.
<mgrwt>
<rscale>  0 0.27996938E+01</rscale>
<asrwt>0</asrwt>
<pdfrwt beam="1">0</pdfrwt>
<pdfrwt beam="2">0</pdfrwt>
<totfact> 0.16240420E+12</totfact>
</mgrwt>
</event>
<event>
 4    1  0.3281603E+006  0.2020536E+01  0.7546771E-02  0.2967000E+00
         22   -1    0    0    0    0  0.00000000000E+00  0.00000000000E+00  0.24428350916E+01  0.24428350916E+01  0.00000000000E+00 0. -1.
         22   -1    0    0    0    0 -0.00000000000E+00 -0.00000000000E+00 -0.55322761478E+01  0.55322761478E+01  0.00000000000E+00 0.  1.
          2    1    1    2  501    0 -0.81762816611E+00  0.18477129447E+01  0.17865256089E+01  0.26970797537E+01  0.25500000000E-02 0. -1.
         -2    1    1    2    0  501  0.81762816611E+00 -0.18477129447E+01 -0.48759666650E+01  0.52780314858E+01  0.25500000000E-02 0.  1.
<mgrwt>
<rscale>  0 0.20205359E+01</rscale>
<asrwt>0</asrwt>
<pdfrwt beam="1">0</pdfrwt>
<pdfrwt beam="2">0</pdfrwt>
<totfact> 0.11531692E+12</totfact>
</mgrwt>
</event>
<event>
 4    1  0.3281603E+006  0.2998782E+01  0.7546771E-02  0.2522565E+00
         22   -1    0    0    0    0  0.00000000000E+00  0.00000000000E+00  0.10612969860E+01  0.10612969860E+01  0.00000000000E+00 0. -1.
         22   -1    0    0    0    0 -0.00000000000E+00 -0.00000000000E+00 -0.10277641152E+02  0.10277641152E+02  0.00000000000E+00 0.  1.
          2    1    1    2  501    0  0.57384413755E+00  0.29433633292E+01 -0.22326745059E+01  0.37386530641E+01  0.25500000000E-02 0. -1.
         -2    1    1    2    0  501 -0.57384413755E+00 -0.29433633292E+01 -0.69836696602E+01  0.76002850741E+01  0.25500000000E-02 0.  1.
<mgrwt>
<rscale>  0 0.29987816E+01</rscale>
<asrwt>0</asrwt>
<pdfrwt beam="1">0</pdfrwt>
<pdfrwt beam="2">0</pdfrwt>
<totfact> 0.14341670E+12</totfact>
</mgrwt>
</event>
<event>
 4    1  0.3281603E+006  0.2525705E+01  0.7546771E-02  0.2697305E+00
         22   -1    0    0    0    0  0.00000000000E+00  0.00000000000E+00  0.14631897202E+01  0.14631897202E+01  0.00000000000E+00 0. -1.
         22   -1    0    0    0    0 -0.00000000000E+00 -0.00000000000E+00 -0.60473164880E+01  0.60473164880E+01  0.00000000000E+00 0.  1.
          2    1    1    2  501    0  0.23726415936E+01  0.86588311922E+00 -0.30832593109E+00  0.25444553622E+01  0.25500000000E-02 0.  1.
         -2    1    1    2    0  501 -0.23726415936E+01 -0.86588311922E+00 -0.42758008367E+01  0.49660508460E+01  0.25500000000E-02 0. -1.
<mgrwt>
<rscale>  0 0.25257055E+01</rscale>
<asrwt>0</asrwt>
<pdfrwt beam="1">0</pdfrwt>
<pdfrwt beam="2">0</pdfrwt>
<totfact> 0.18763699E+12</totfact>
</mgrwt>
</event>
<event>
 4    1  0.3281603E+006  0.2262859E+01  0.7546771E-02  0.2823309E+00
         22   -1    0    0    0    0  0.00000000000E+00  0.00000000000E+00  0.36006938923E+00  0.36006938923E+00  0.00000000000E+00 0. -1.
         22   -1    0    0    0    0 -0.00000000000E+00 -0.00000000000E+00 -0.14899469018E+02  0.14899469018E+02  0.00000000000E+00 0.  1.
          2    1    1    2  501    0 -0.15986909704E+00 -0.22572029104E+01 -0.56415053219E+01  0.60784136011E+01  0.25500000000E-02 0. -1.
         -2    1    1    2    0  501  0.15986909704E+00  0.22572029104E+01 -0.88978943072E+01  0.91811248064E+01  0.25500000000E-02 0.  1.
<mgrwt>
<rscale>  0 0.22628587E+01</rscale>
<asrwt>0</asrwt>
<pdfrwt beam="1">0</pdfrwt>
<pdfrwt beam="2">0</pdfrwt>
<totfact> 0.31017633E+12</totfact>
</mgrwt>
</event>
<event>
 4    1  0.3281603E+006  0.2016680E+01  0.7546771E-02  0.2969557E+00
         22   -1    0    0    0    0  0.00000000000E+00  0.00000000000E+00  0.31334659069E+00  0.31334659069E+00  0.00000000000E+00 0. -1.
         22   -1    0    0    0    0 -0.00000000000E+00 -0.00000000000E+00 -0.39215650199E+02  0.39215650199E+02  0.00000000000E+00 0.  1.
          2    1    1    2  501    0 -0.89741640368E+00 -0.18059995565E+01 -0.32849354966E+01  0.38545814714E+01  0.25500000000E-02 0. -1.
         -2    1    1    2    0  501  0.89741640368E+00  0.18059995565E+01 -0.35617368112E+02  0.35674415319E+02  0.25500000000E-02 0.  1.
<mgrwt>
<rscale>  0 0.20166797E+01</rscale>
<asrwt>0</asrwt>
<pdfrwt beam="1">0</pdfrwt>
<pdfrwt beam="2">0</pdfrwt>
<totfact> 0.10705421E+12</totfact>
</mgrwt>
</event>
<event>
 4    1  0.3281603E+006  0.2539386E+01  0.7546771E-02  0.2691417E+00
         22   -1    0    0    0    0  0.00000000000E+00  0.00000000000E+00  0.26170691228E+01  0.26170691228E+01  0.00000000000E+00 0.  1.
         22   -1    0    0    0    0 -0.00000000000E+00 -0.00000000000E+00 -0.34642030681E+01  0.34642030681E+01  0.00000000000E+00 0. -1.
          2    1    1    2  501    0  0.18359491408E+01 -0.17543564335E+01  0.12102555626E+01  0.28130411964E+01  0.25500000000E-02 0.  1.
         -2    1    1    2    0  501 -0.18359491408E+01  0.17543564335E+01 -0.20573895079E+01  0.32682309944E+01  0.25500000000E-02 0. -1.
<mgrwt>
<rscale>  0 0.25393862E+01</rscale>
<asrwt>0</asrwt>
<pdfrwt beam="1">0</pdfrwt>
<pdfrwt beam="2">0</pdfrwt>
<totfact> 0.18490924E+12</totfact>
</mgrwt>
</event>
<event>
 4    1  0.3281603E+006  0.8503400E+01  0.7546771E-02  0.1848520E+00
         22   -1    0    0    0    0  0.00000000000E+00  0.00000000000E+00  0.71807185611E+01  0.71807185611E+01  0.00000000000E+00 0.  1.
         22   -1    0    0    0    0 -0.00000000000E+00 -0.00000000000E+00 -0.17561401236E+02  0.17561401236E+02  0.00000000000E+00 0. -1.
          2    1    1    2  501    0 -0.29969464859E+01 -0.79577703649E+01  0.28897646659E+01  0.89810101741E+01  0.25500000000E-02 0.  1.
         -2    1    1    2    0  501  0.29969464859E+01  0.79577703649E+01 -0.13270447341E+02  0.15761109623E+02  0.25500000000E-02 0. -1.
<mgrwt>
<rscale>  0 0.85033996E+01</rscale>
<asrwt>0</asrwt>
<pdfrwt beam="1">0</pdfrwt>
<pdfrwt beam="2">0</pdfrwt>
<totfact> 0.79858381E+10</totfact>
</mgrwt>
</event>
<event>
 4    1  0.3281603E+006  0.3735759E+01  0.7546771E-02  0.2330842E+00
         22   -1    0    0    0    0  0.00000000000E+00  0.00000000000E+00  0.88517241276E+00  0.88517241276E+00  0.00000000000E+00 0.  1.
         22   -1    0    0    0    0 -0.00000000000E+00 -0.00000000000E+00 -0.16319360697E+02  0.16319360697E+02  0.00000000000E+00 0. -1.
          2    1    1    2  501    0  0.35599387122E+01  0.11325734259E+01 -0.61334842165E+01  0.71816099404E+01  0.25500000000E-02 0.  1.
         -2    1    1    2    0  501 -0.35599387122E+01 -0.11325734259E+01 -0.93007040674E+01  0.10022923169E+02  0.25500000000E-02 0. -1.
<mgrwt>
<rscale>  0 0.37357587E+01</rscale>
<asrwt>0</asrwt>
<pdfrwt beam="1">0</pdfrwt>
<pdfrwt beam="2">0</pdfrwt>
<totfact> 0.10020965E+12</totfact>
</mgrwt>
</event>
<event>
 4    1  0.3281603E+006  0.2283229E+01  0.7546771E-02  0.2812567E+00
         22   -1    0    0    0    0  0.00000000000E+00  0.00000000000E+00  0.42947474563E+02  0.42947474563E+02  0.00000000000E+00 0.  1.
         22   -1    0    0    0    0 -0.00000000000E+00 -0.00000000000E+00 -0.17297937830E+00  0.17297937830E+00  0.00000000000E+00 0. -1.
          2    1    1    2  501    0 -0.20886350307E+01  0.92235028699E+00  0.33162274193E+02  0.33240781617E+02  0.25500000000E-02 0.  1.
         -2    1    1    2    0  501  0.20886350307E+01 -0.92235028699E+00  0.96122209919E+01  0.98796723246E+01  0.25500000000E-02 0. -1.
<mgrwt>
<rscale>  0 0.22832286E+01</rscale>
<asrwt>0</asrwt>
<pdfrwt beam="1">0</pdfrwt>
<pdfrwt beam="2">0</pdfrwt>
<totfact> 0.18480187E+12</totfact>
</mgrwt>
</event>
<event>
 4    1  0.3281603E+006  0.2023302E+01  0.7546771E-02  0.2965172E+00
         22   -1    0    0    0    0  0.00000000000E+00  0.00000000000E+00  0.73157971274E+00  0.73157971274E+00  0.00000000000E+00 0. -1.
         22   -1    0    0    0    0 -0.00000000000E+00 -0.00000000000E+00 -0.56372968014E+01  0.56372968014E+01  0.00000000000E+00 0.  1.
          2    1    1    2  501    0 -0.98497894461E+00  0.17673599087E+01 -0.21795413830E+01  0.29739118533E+01  0.25500000000E-02 0. -1.
         -2    1    1    2    0  501  0.98497894461E+00 -0.17673599087E+01 -0.27261757056E+01  0.33949646609E+01  0.25500000000E-02 0.  1.
<mgrwt>
<rscale>  0 0.20233020E+01</rscale>
<asrwt>0</asrwt>
<pdfrwt beam="1">0</pdfrwt>
<pdfrwt beam="2">0</pdfrwt>
<totfact> 0.45036473E+12</totfact>
</mgrwt>
</event>
<event>
 4    1  0.3281603E+006  0.2422349E+01  0.7546771E-02  0.2743786E+00
         22   -1    0    0    0    0  0.00000000000E+00  0.00000000000E+00  0.11010100906E+02  0.11010100906E+02  0.00000000000E+00 0.  1.
         22   -1    0    0    0    0 -0.00000000000E+00 -0.00000000000E+00 -0.69036659487E+00  0.69036659487E+00  0.00000000000E+00 0. -1.
          2    1    1    2  501    0 -0.76641862898E+00 -0.22979059972E+01  0.79534771066E+01  0.83141790980E+01  0.25500000000E-02 0.  1.
         -2    1    1    2    0  501  0.76641862898E+00  0.22979059972E+01  0.23662572046E+01  0.33862884029E+01  0.25500000000E-02 0. -1.
<mgrwt>
<rscale>  0 0.24223493E+01</rscale>
<asrwt>0</asrwt>
<pdfrwt beam="1">0</pdfrwt>
<pdfrwt beam="2">0</pdfrwt>
<totfact> 0.21528039E+12</totfact>
</mgrwt>
</event>
<event>
 4    1  0.3281603E+006  0.2700953E+01  0.7546771E-02  0.2626061E+00
         22   -1    0    0    0    0  0.00000000000E+00  0.00000000000E+00  0.87569221906E+01  0.87569221906E+01  0.00000000000E+00 0. -1.
         22   -1    0    0    0    0 -0.00000000000E+00 -0.00000000000E+00 -0.10378118450E+01  0.10378118450E+01  0.00000000000E+00 0.  1.
          2    1    1    2  501    0  0.25777753059E+01  0.80635877287E+00  0.60347819840E+01  0.66116367184E+01  0.25500000000E-02 0. -1.
         -2    1    1    2    0  501 -0.25777753059E+01 -0.80635877287E+00  0.16843283615E+01  0.31830973172E+01  0.25500000000E-02 0.  1.
<mgrwt>
<rscale>  0 0.27009529E+01</rscale>
<asrwt>0</asrwt>
<pdfrwt beam="1">0</pdfrwt>
<pdfrwt beam="2">0</pdfrwt>
<totfact> 0.17854656E+12</totfact>
</mgrwt>
</event>
<event>
 4    1  0.3281603E+006  0.2646270E+01  0.7546771E-02  0.2647358E+00
         22   -1    0    0    0    0  0.00000000000E+00  0.00000000000E+00  0.17786385640E+01  0.17786385640E+01  0.00000000000E+00 0.  1.
         22   -1    0    0    0    0 -0.00000000000E+00 -0.00000000000E+00 -0.15929512330E+02  0.15929512330E+02  0.00000000000E+00 0. -1.
          2    1    1    2  501    0  0.25984754790E+01 -0.50066308340E+00  0.60692166818E+00  0.27149767497E+01  0.25500000000E-02 0.  1.
         -2    1    1    2    0  501 -0.25984754790E+01  0.50066308340E+00 -0.14757795434E+02  0.14993174144E+02  0.25500000000E-02 0. -1.
<mgrwt>
<rscale>  0 0.26462700E+01</rscale>
<asrwt>0</asrwt>
<pdfrwt beam="1">0</pdfrwt>
<pdfrwt beam="2">0</pdfrwt>
<totfact> 0.46377937E+11</totfact>
</mgrwt>
</event>
<event>
 4    1  0.3281603E+006  0.2241793E+01  0.7546771E-02  0.2834614E+00
         22   -1    0    0    0    0  0.00000000000E+00  0.00000000000E+00  0.14766040054E+00  0.14766040054E+00  0.00000000000E+00 0. -1.
         22   -1    0    0    0    0 -0.00000000000E+00 -0.00000000000E+00 -0.60257695275E+02  0.60257695275E+02  0.00000000000E+00 0.  1.
          2    1    1    2  501    0  0.19799689932E+01 -0.10513567906E+01 -0.10130990416E+02  0.10376059061E+02  0.25500000000E-02 0. -1.
         -2    1    1    2    0  501 -0.19799689932E+01  0.10513567906E+01 -0.49979044458E+02  0.50029296615E+02  0.25500000000E-02 0.  1.
<mgrwt>
<rscale>  0 0.22417928E+01</rscale>
<asrwt>0</asrwt>
<pdfrwt beam="1">0</pdfrwt>
<pdfrwt beam="2">0</pdfrwt>
<totfact> 0.14089397E+12</totfact>
</mgrwt>
</event>
<event>
 4    1  0.3281603E+006  0.3077195E+01  0.7546771E-02  0.2498335E+00
         22   -1    0    0    0    0  0.00000000000E+00  0.00000000000E+00  0.37693714383E+02  0.37693714383E+02  0.00000000000E+00 0.  1.
         22   -1    0    0    0    0 -0.00000000000E+00 -0.00000000000E+00 -0.46938881585E+00  0.46938881585E+00  0.00000000000E+00 0. -1.
          2    1    1    2  501    0 -0.22761557984E+01  0.20708058379E+01  0.31621381540E+02  0.31770755406E+02  0.25500000000E-02 0.  1.
         -2    1    1    2    0  501  0.22761557984E+01 -0.20708058379E+01  0.56029440270E+01  0.63923477932E+01  0.25500000000E-02 0. -1.
<mgrwt>
<rscale>  0 0.30771949E+01</rscale>
<asrwt>0</asrwt>
<pdfrwt beam="1">0</pdfrwt>
<pdfrwt beam="2">0</pdfrwt>
<totfact> 0.71527448E+11</totfact>
</mgrwt>
</event>
<event>
 4    1  0.3281603E+006  0.2256476E+01  0.7546771E-02  0.2826713E+00
         22   -1    0    0    0    0  0.00000000000E+00  0.00000000000E+00  0.77400683442E+00  0.77400683442E+00  0.00000000000E+00 0. -1.
         22   -1    0    0    0    0 -0.00000000000E+00 -0.00000000000E+00 -0.22081583343E+02  0.22081583343E+02  0.00000000000E+00 0.  1.
          2    1    1    2  501    0  0.17309404158E+01 -0.14475917238E+01 -0.10783520234E+01  0.25009050583E+01  0.25500000000E-02 0. -1.
         -2    1    1    2    0  501 -0.17309404158E+01  0.14475917238E+01 -0.20229224485E+02  0.20354685119E+02  0.25500000000E-02 0.  1.
<mgrwt>
<rscale>  0 0.22564758E+01</rscale>
<asrwt>0</asrwt>
<pdfrwt beam="1">0</pdfrwt>
<pdfrwt beam="2">0</pdfrwt>
<totfact> 0.80141637E+11</totfact>
</mgrwt>
</event>
<event>
 4    1  0.3281603E+006  0.2150282E+01  0.7546771E-02  0.2886177E+00
         22   -1    0    0    0    0  0.00000000000E+00  0.00000000000E+00  0.56376143089E+00  0.56376143089E+00  0.00000000000E+00 0.  1.
         22   -1    0    0    0    0 -0.00000000000E+00 -0.00000000000E+00 -0.83012907646E+01  0.83012907646E+01  0.00000000000E+00 0. -1.
          2    1    1    2  501    0  0.90591199336E+00  0.19501359898E+01 -0.43546466906E+01  0.48566100545E+01  0.25500000000E-02 0. -1.
         -2    1    1    2    0  501 -0.90591199336E+00 -0.19501359898E+01 -0.33828826431E+01  0.40084421410E+01  0.25500000000E-02 0.  1.
<mgrwt>
<rscale>  0 0.21502822E+01</rscale>
<asrwt>0</asrwt>
<pdfrwt beam="1">0</pdfrwt>
<pdfrwt beam="2">0</pdfrwt>
<totfact> 0.38102453E+12</totfact>
</mgrwt>
</event>
<event>
 4    1  0.3281603E+006  0.2460761E+01  0.7546771E-02  0.2726086E+00
         22   -1    0    0    0    0  0.00000000000E+00  0.00000000000E+00  0.20096272012E+00  0.20096272012E+00  0.00000000000E+00 0.  1.
         22   -1    0    0    0    0 -0.00000000000E+00 -0.00000000000E+00 -0.34390003119E+02  0.34390003119E+02  0.00000000000E+00 0. -1.
          2    1    1    2  501    0  0.18975123963E+00 -0.24534328117E+01 -0.11008465731E+02  0.11280144606E+02  0.25500000000E-02 0.  1.
         -2    1    1    2    0  501 -0.18975123963E+00  0.24534328117E+01 -0.23180574668E+02  0.23310821233E+02  0.25500000000E-02 0. -1.
<mgrwt>
<rscale>  0 0.24607610E+01</rscale>
<asrwt>0</asrwt>
<pdfrwt beam="1">0</pdfrwt>
<pdfrwt beam="2">0</pdfrwt>
<totfact> 0.20847412E+12</totfact>
</mgrwt>
</event>
<event>
 4    1  0.3281603E+006  0.3301833E+01  0.7546771E-02  0.2434622E+00
         22   -1    0    0    0    0  0.00000000000E+00  0.00000000000E+00  0.10948205872E+02  0.10948205872E+02  0.00000000000E+00 0. -1.
         22   -1    0    0    0    0 -0.00000000000E+00 -0.00000000000E+00 -0.11698486203E+01  0.11698486203E+01  0.00000000000E+00 0.  1.
          2    1    1    2  501    0 -0.19042746659E+01 -0.26973753594E+01  0.72263317160E+01  0.79449337571E+01  0.25500000000E-02 0. -1.
         -2    1    1    2    0  501  0.19042746659E+01  0.26973753594E+01  0.25520255354E+01  0.41731207349E+01  0.25500000000E-02 0.  1.
<mgrwt>
<rscale>  0 0.33018332E+01</rscale>
<asrwt>0</asrwt>
<pdfrwt beam="1">0</pdfrwt>
<pdfrwt beam="2">0</pdfrwt>
<totfact> 0.11882282E+12</totfact>
</mgrwt>
</event>
<event>
 4    1  0.3281603E+006  0.2429643E+01  0.7546771E-02  0.2740385E+00
         22   -1    0    0    0    0  0.00000000000E+00  0.00000000000E+00  0.23363585797E+01  0.23363585797E+01  0.00000000000E+00 0.  1.
         22   -1    0    0    0    0 -0.00000000000E+00 -0.00000000000E+00 -0.26774412599E+01  0.26774412599E+01  0.00000000000E+00 0. -1.
          2    1    1    2  501    0  0.20557838659E+01 -0.12949559541E+01  0.42438396325E+00  0.24664278779E+01  0.25500000000E-02 0.  1.
         -2    1    1    2    0  501 -0.20557838659E+01  0.12949559541E+01 -0.76546664345E+00  0.25473719617E+01  0.25500000000E-02 0. -1.
<mgrwt>
<rscale>  0 0.24296429E+01</rscale>
<asrwt>0</asrwt>
<pdfrwt beam="1">0</pdfrwt>
<pdfrwt beam="2">0</pdfrwt>
<totfact> 0.28510800E+12</totfact>
</mgrwt>
</event>
<event>
 4    1  0.3281603E+006  0.2547154E+01  0.7546771E-02  0.2688099E+00
         22   -1    0    0    0    0  0.00000000000E+00  0.00000000000E+00  0.68336491733E+01  0.68336491733E+01  0.00000000000E+00 0.  1.
         22   -1    0    0    0    0 -0.00000000000E+00 -0.00000000000E+00 -0.59110482999E+01  0.59110482999E+01  0.00000000000E+00 0. -1.
          2    1    1    2  501    0 -0.25456912552E+01 -0.86284493646E-01  0.62995068224E+01  0.67949820963E+01  0.25500000000E-02 0.  1.
         -2    1    1    2    0  501  0.25456912552E+01  0.86284493646E-01 -0.53769059490E+01  0.59497153770E+01  0.25500000000E-02 0. -1.
<mgrwt>
<rscale>  0 0.25471544E+01</rscale>
<asrwt>0</asrwt>
<pdfrwt beam="1">0</pdfrwt>
<pdfrwt beam="2">0</pdfrwt>
<totfact> 0.31732899E+11</totfact>
</mgrwt>
</event>
<event>
 4    1  0.3281603E+006  0.2083927E+01  0.7546771E-02  0.2926290E+00
         22   -1    0    0    0    0  0.00000000000E+00  0.00000000000E+00  0.50559958525E+00  0.50559958525E+00  0.00000000000E+00 0.  1.
         22   -1    0    0    0    0 -0.00000000000E+00 -0.00000000000E+00 -0.89522430696E+01  0.89522430696E+01  0.00000000000E+00 0. -1.
          2    1    1    2  501    0  0.80986108603E-01 -0.20823515063E+01 -0.32711666767E+01  0.38785673224E+01  0.25500000000E-02 0.  1.
         -2    1    1    2    0  501 -0.80986108603E-01  0.20823515063E+01 -0.51754768077E+01  0.55792753324E+01  0.25500000000E-02 0. -1.
<mgrwt>
<rscale>  0 0.20839273E+01</rscale>
<asrwt>0</asrwt>
<pdfrwt beam="1">0</pdfrwt>
<pdfrwt beam="2">0</pdfrwt>
<totfact> 0.39346546E+12</totfact>
</mgrwt>
</event>
<event>
 4    1  0.3281603E+006  0.2509456E+01  0.7546771E-02  0.2704376E+00
         22   -1    0    0    0    0  0.00000000000E+00  0.00000000000E+00  0.71833821020E+00  0.71833821020E+00  0.00000000000E+00 0.  1.
         22   -1    0    0    0    0 -0.00000000000E+00 -0.00000000000E+00 -0.91927631303E+01  0.91927631303E+01  0.00000000000E+00 0. -1.
          2    1    1    2  501    0 -0.15311069535E+01  0.19882335019E+01 -0.31702027349E+01  0.40432107098E+01  0.25500000000E-02 0.  1.
         -2    1    1    2    0  501  0.15311069535E+01 -0.19882335019E+01 -0.53042221852E+01  0.58678906307E+01  0.25500000000E-02 0. -1.
<mgrwt>
<rscale>  0 0.25094556E+01</rscale>
<asrwt>0</asrwt>
<pdfrwt beam="1">0</pdfrwt>
<pdfrwt beam="2">0</pdfrwt>
<totfact> 0.25604559E+12</totfact>
</mgrwt>
</event>
<event>
 4    1  0.3281603E+006  0.2148244E+01  0.7546771E-02  0.2887373E+00
         22   -1    0    0    0    0  0.00000000000E+00  0.00000000000E+00  0.95893719736E+00  0.95893719736E+00  0.00000000000E+00 0. -1.
         22   -1    0    0    0    0 -0.00000000000E+00 -0.00000000000E+00 -0.48225416765E+01  0.48225416765E+01  0.00000000000E+00 0.  1.
          2    1    1    2  501    0 -0.15965907925E+01  0.14373044942E+01 -0.20632472437E+01  0.29785805444E+01  0.25500000000E-02 0.  1.
         -2    1    1    2    0  501  0.15965907925E+01 -0.14373044942E+01 -0.18003572354E+01  0.28028983295E+01  0.25500000000E-02 0. -1.
<mgrwt>
<rscale>  0 0.21482441E+01</rscale>
<asrwt>0</asrwt>
<pdfrwt beam="1">0</pdfrwt>
<pdfrwt beam="2">0</pdfrwt>
<totfact> 0.39823756E+12</totfact>
</mgrwt>
</event>
<event>
 4    1  0.3281603E+006  0.2359561E+01  0.7546771E-02  0.2773881E+00
         22   -1    0    0    0    0  0.00000000000E+00  0.00000000000E+00  0.27193014397E+00  0.27193014397E+00  0.00000000000E+00 0. -1.
         22   -1    0    0    0    0 -0.00000000000E+00 -0.00000000000E+00 -0.22778877912E+02  0.22778877912E+02  0.00000000000E+00 0.  1.
          2    1    1    2  501    0 -0.15793463827E+01  0.17530505206E+01 -0.75873797414E+01  0.79458076347E+01  0.25500000000E-02 0. -1.
         -2    1    1    2    0  501  0.15793463827E+01 -0.17530505206E+01 -0.14919568027E+02  0.15105000422E+02  0.25500000000E-02 0.  1.
<mgrwt>
<rscale>  0 0.23595609E+01</rscale>
<asrwt>0</asrwt>
<pdfrwt beam="1">0</pdfrwt>
<pdfrwt beam="2">0</pdfrwt>
<totfact> 0.25082630E+12</totfact>
</mgrwt>
</event>
<event>
 4    1  0.3281603E+006  0.2197697E+01  0.7546771E-02  0.2858946E+00
         22   -1    0    0    0    0  0.00000000000E+00  0.00000000000E+00  0.14209824934E+01  0.14209824934E+01  0.00000000000E+00 0.  1.
         22   -1    0    0    0    0 -0.00000000000E+00 -0.00000000000E+00 -0.39315286185E+01  0.39315286185E+01  0.00000000000E+00 0. -1.
          2    1    1    2  501    0 -0.11661962664E+01 -0.18627537419E+01 -0.27028256336E+00  0.22142548185E+01  0.25500000000E-02 0. -1.
         -2    1    1    2    0  501  0.11661962664E+01  0.18627537419E+01 -0.22402635617E+01  0.31382562934E+01  0.25500000000E-02 0.  1.
<mgrwt>
<rscale>  0 0.21976969E+01</rscale>
<asrwt>0</asrwt>
<pdfrwt beam="1">0</pdfrwt>
<pdfrwt beam="2">0</pdfrwt>
<totfact> 0.32298735E+12</totfact>
</mgrwt>
</event>
<event>
 4    1  0.3281603E+006  0.2619173E+01  0.7546771E-02  0.2658213E+00
         22   -1    0    0    0    0  0.00000000000E+00  0.00000000000E+00  0.19879499653E+00  0.19879499653E+00  0.00000000000E+00 0.  1.
         22   -1    0    0    0    0 -0.00000000000E+00 -0.00000000000E+00 -0.48825247528E+02  0.48825247528E+02  0.00000000000E+00 0. -1.
          2    1    1    2  501    0 -0.81079189234E+00  0.24905171839E+01 -0.11039801427E+02  0.11346245255E+02  0.25500000000E-02 0.  1.
         -2    1    1    2    0  501  0.81079189234E+00 -0.24905171839E+01 -0.37586651104E+02  0.37677797269E+02  0.25500000000E-02 0. -1.
<mgrwt>
<rscale>  0 0.26191727E+01</rscale>
<asrwt>0</asrwt>
<pdfrwt beam="1">0</pdfrwt>
<pdfrwt beam="2">0</pdfrwt>
<totfact> 0.13378233E+12</totfact>
</mgrwt>
</event>
<event>
 4    1  0.3281603E+006  0.2343360E+01  0.7546771E-02  0.2781892E+00
         22   -1    0    0    0    0  0.00000000000E+00  0.00000000000E+00  0.16701704999E+02  0.16701704999E+02  0.00000000000E+00 0. -1.
         22   -1    0    0    0    0 -0.00000000000E+00 -0.00000000000E+00 -0.47993126158E+00  0.47993126158E+00  0.00000000000E+00 0.  1.
          2    1    1    2  501    0 -0.15132078655E+01  0.17892825678E+01  0.12931896323E+02  0.13142498970E+02  0.25500000000E-02 0. -1.
         -2    1    1    2    0  501  0.15132078655E+01 -0.17892825678E+01  0.32898774143E+01  0.40391372910E+01  0.25500000000E-02 0.  1.
<mgrwt>
<rscale>  0 0.23433601E+01</rscale>
<asrwt>0</asrwt>
<pdfrwt beam="1">0</pdfrwt>
<pdfrwt beam="2">0</pdfrwt>
<totfact> 0.19494220E+12</totfact>
</mgrwt>
</event>
<event>
 4    1  0.3281603E+006  0.2097362E+01  0.7546771E-02  0.2917970E+00
         22   -1    0    0    0    0  0.00000000000E+00  0.00000000000E+00  0.41545522721E+00  0.41545522721E+00  0.00000000000E+00 0.  1.
         22   -1    0    0    0    0 -0.00000000000E+00 -0.00000000000E+00 -0.15731410255E+02  0.15731410255E+02  0.00000000000E+00 0. -1.
          2    1    1    2  501    0 -0.11978293500E+01 -0.17216633172E+01 -0.30417073500E+01  0.36947137691E+01  0.25500000000E-02 0.  1.
         -2    1    1    2    0  501  0.11978293500E+01  0.17216633172E+01 -0.12274247678E+02  0.12452151713E+02  0.25500000000E-02 0. -1.
<mgrwt>
<rscale>  0 0.20973617E+01</rscale>
<asrwt>0</asrwt>
<pdfrwt beam="1">0</pdfrwt>
<pdfrwt beam="2">0</pdfrwt>
<totfact> 0.24695398E+12</totfact>
</mgrwt>
</event>
<event>
 4    1  0.3281603E+006  0.2246178E+01  0.7546771E-02  0.2832244E+00
         22   -1    0    0    0    0  0.00000000000E+00  0.00000000000E+00  0.25171328719E+02  0.25171328719E+02  0.00000000000E+00 0.  1.
         22   -1    0    0    0    0 -0.00000000000E+00 -0.00000000000E+00 -0.24989863361E+00  0.24989863361E+00  0.00000000000E+00 0. -1.
          2    1    1    2  501    0 -0.73369983020E+00 -0.21229683210E+01  0.18115419902E+02  0.18254143493E+02  0.25500000000E-02 0.  1.
         -2    1    1    2    0  501  0.73369983020E+00  0.21229683210E+01  0.68060101833E+01  0.71670838596E+01  0.25500000000E-02 0. -1.
<mgrwt>
<rscale>  0 0.22461782E+01</rscale>
<asrwt>0</asrwt>
<pdfrwt beam="1">0</pdfrwt>
<pdfrwt beam="2">0</pdfrwt>
<totfact> 0.24313524E+12</totfact>
</mgrwt>
</event>
<event>
 4    1  0.3281603E+006  0.3098695E+01  0.7546771E-02  0.2491883E+00
         22   -1    0    0    0    0  0.00000000000E+00  0.00000000000E+00  0.11278750699E+00  0.11278750699E+00  0.00000000000E+00 0.  1.
         22   -1    0    0    0    0 -0.00000000000E+00 -0.00000000000E+00 -0.93465313871E+02  0.93465313871E+02  0.00000000000E+00 0. -1.
          2    1    1    2  501    0  0.15395985293E+01  0.26891523710E+01 -0.32705879571E+02  0.32852343434E+02  0.25500000000E-02 0.  1.
         -2    1    1    2    0  501 -0.15395985293E+01 -0.26891523710E+01 -0.60646646794E+02  0.60725757944E+02  0.25500000000E-02 0. -1.
<mgrwt>
<rscale>  0 0.30986950E+01</rscale>
<asrwt>0</asrwt>
<pdfrwt beam="1">0</pdfrwt>
<pdfrwt beam="2">0</pdfrwt>
<totfact> 0.10430100E+12</totfact>
</mgrwt>
</event>
<event>
 4    1  0.3281603E+006  0.2576718E+01  0.7546771E-02  0.2675644E+00
         22   -1    0    0    0    0  0.00000000000E+00  0.00000000000E+00  0.72726807043E+01  0.72726807043E+01  0.00000000000E+00 0. -1.
         22   -1    0    0    0    0 -0.00000000000E+00 -0.00000000000E+00 -0.15156695891E+01  0.15156695891E+01  0.00000000000E+00 0.  1.
          2    1    1    2  501    0 -0.24167307253E+01  0.89380258947E+00  0.56495183986E+01  0.62093908804E+01  0.25500000000E-02 0. -1.
         -2    1    1    2    0  501  0.24167307253E+01 -0.89380258947E+00  0.10749271653E+00  0.25789594130E+01  0.25500000000E-02 0.  1.
<mgrwt>
<rscale>  0 0.25767183E+01</rscale>
<asrwt>0</asrwt>
<pdfrwt beam="1">0</pdfrwt>
<pdfrwt beam="2">0</pdfrwt>
<totfact> 0.14455307E+12</totfact>
</mgrwt>
</event>
<event>
 4    1  0.3281603E+006  0.3825099E+01  0.7546771E-02  0.2312028E+00
         22   -1    0    0    0    0  0.00000000000E+00  0.00000000000E+00  0.19159042204E+01  0.19159042204E+01  0.00000000000E+00 0. -1.
         22   -1    0    0    0    0 -0.00000000000E+00 -0.00000000000E+00 -0.80755435106E+01  0.80755435106E+01  0.00000000000E+00 0.  1.
          2    1    1    2  501    0 -0.19392362319E+01 -0.32970799671E+01 -0.19153793670E+01  0.42778567174E+01  0.25500000000E-02 0. -1.
         -2    1    1    2    0  501  0.19392362319E+01  0.32970799671E+01 -0.42442599232E+01  0.57135910136E+01  0.25500000000E-02 0.  1.
<mgrwt>
<rscale>  0 0.38250987E+01</rscale>
<asrwt>0</asrwt>
<pdfrwt beam="1">0</pdfrwt>
<pdfrwt beam="2">0</pdfrwt>
<totfact> 0.97292142E+11</totfact>
</mgrwt>
</event>
<event>
 4    1  0.3281603E+006  0.2832436E+01  0.7546771E-02  0.2577939E+00
         22   -1    0    0    0    0  0.00000000000E+00  0.00000000000E+00  0.90291210790E+01  0.90291210790E+01  0.00000000000E+00 0. -1.
         22   -1    0    0    0    0 -0.00000000000E+00 -0.00000000000E+00 -0.10599022430E+01  0.10599022430E+01  0.00000000000E+00 0.  1.
          2    1    1    2  501    0  0.43770957634E+00 -0.27984094626E+01  0.60129921527E+01  0.66467109403E+01  0.25500000000E-02 0. -1.
         -2    1    1    2    0  501 -0.43770957634E+00  0.27984094626E+01  0.19562266833E+01  0.34423123816E+01  0.25500000000E-02 0.  1.
<mgrwt>
<rscale>  0 0.28324356E+01</rscale>
<asrwt>0</asrwt>
<pdfrwt beam="1">0</pdfrwt>
<pdfrwt beam="2">0</pdfrwt>
<totfact> 0.16798449E+12</totfact>
</mgrwt>
</event>
<event>
 4    1  0.3281603E+006  0.2236311E+01  0.7546771E-02  0.2837589E+00
         22   -1    0    0    0    0  0.00000000000E+00  0.00000000000E+00  0.36793097373E+01  0.36793097373E+01  0.00000000000E+00 0.  1.
         22   -1    0    0    0    0 -0.00000000000E+00 -0.00000000000E+00 -0.17157154067E+01  0.17157154067E+01  0.00000000000E+00 0. -1.
          2    1    1    2  501    0  0.17772687301E+01 -0.13573494773E+01  0.22113629925E+01  0.31450301318E+01  0.25500000000E-02 0.  1.
         -2    1    1    2    0  501 -0.17772687301E+01  0.13573494773E+01 -0.24776866194E+00  0.22499950122E+01  0.25500000000E-02 0. -1.
<mgrwt>
<rscale>  0 0.22363113E+01</rscale>
<asrwt>0</asrwt>
<pdfrwt beam="1">0</pdfrwt>
<pdfrwt beam="2">0</pdfrwt>
<totfact> 0.28103846E+12</totfact>
</mgrwt>
</event>
<event>
 4    1  0.3281603E+006  0.2103901E+01  0.7546771E-02  0.2913957E+00
         22   -1    0    0    0    0  0.00000000000E+00  0.00000000000E+00  0.75892556861E+01  0.75892556861E+01  0.00000000000E+00 0. -1.
         22   -1    0    0    0    0 -0.00000000000E+00 -0.00000000000E+00 -0.69460094987E+00  0.69460094987E+00  0.00000000000E+00 0.  1.
          2    1    1    2  501    0  0.11769652164E+01  0.17438882163E+01  0.51057319934E+01  0.55222186594E+01  0.25500000000E-02 0. -1.
         -2    1    1    2    0  501 -0.11769652164E+01 -0.17438882163E+01  0.17889227428E+01  0.27616379766E+01  0.25500000000E-02 0.  1.
<mgrwt>
<rscale>  0 0.21039011E+01</rscale>
<asrwt>0</asrwt>
<pdfrwt beam="1">0</pdfrwt>
<pdfrwt beam="2">0</pdfrwt>
<totfact> 0.33498204E+12</totfact>
</mgrwt>
</event>
<event>
 4    1  0.3281603E+006  0.6082652E+01  0.7546771E-02  0.2012354E+00
         22   -1    0    0    0    0  0.00000000000E+00  0.00000000000E+00  0.22634312369E+02  0.22634312369E+02  0.00000000000E+00 0.  1.
         22   -1    0    0    0    0 -0.00000000000E+00 -0.00000000000E+00 -0.17948138076E+01  0.17948138076E+01  0.00000000000E+00 0. -1.
          2    1    1    2  501    0 -0.39034811567E+01  0.46649208070E+01  0.67706840241E+01  0.91016932454E+01  0.25500000000E-02 0. -1.
         -2    1    1    2    0  501  0.39034811567E+01 -0.46649208070E+01  0.14068814538E+02  0.15327432932E+02  0.25500000000E-02 0.  1.
<mgrwt>
<rscale>  0 0.60826522E+01</rscale>
<asrwt>0</asrwt>
<pdfrwt beam="1">0</pdfrwt>
<pdfrwt beam="2">0</pdfrwt>
<totfact> 0.29647652E+11</totfact>
</mgrwt>
</event>
<event>
 4    1  0.3281603E+006  0.4958146E+01  0.7546771E-02  0.2128033E+00
         22   -1    0    0    0    0  0.00000000000E+00  0.00000000000E+00  0.80671126896E+02  0.80671126896E+02  0.00000000000E+00 0. -1.
         22   -1    0    0    0    0 -0.00000000000E+00 -0.00000000000E+00 -0.10101924351E+01  0.10101924351E+01  0.00000000000E+00 0.  1.
          2    1    1    2  501    0  0.11079535557E+01  0.48327679561E+01  0.73959697188E+02  0.74125704191E+02  0.25500000000E-02 0. -1.
         -2    1    1    2    0  501 -0.11079535557E+01 -0.48327679561E+01  0.57012372732E+01  0.75556151402E+01  0.25500000000E-02 0.  1.
<mgrwt>
<rscale>  0 0.49581462E+01</rscale>
<asrwt>0</asrwt>
<pdfrwt beam="1">0</pdfrwt>
<pdfrwt beam="2">0</pdfrwt>
<totfact> 0.10887852E+11</totfact>
</mgrwt>
</event>
<event>
 4    1  0.3281603E+006  0.9370641E+01  0.7546771E-02  0.1806058E+00
         22   -1    0    0    0    0  0.00000000000E+00  0.00000000000E+00  0.28389963090E+01  0.28389963090E+01  0.00000000000E+00 0.  1.
         22   -1    0    0    0    0 -0.00000000000E+00 -0.00000000000E+00 -0.51883668400E+02  0.51883668400E+02  0.00000000000E+00 0. -1.
          2    1    1    2  501    0 -0.88574153565E+01 -0.30586107284E+01 -0.71340620718E+01  0.11777255815E+02  0.25500000000E-02 0. -1.
         -2    1    1    2    0  501  0.88574153565E+01  0.30586107284E+01 -0.41910610019E+02  0.42945408894E+02  0.25500000000E-02 0.  1.
<mgrwt>
<rscale>  0 0.93706410E+01</rscale>
<asrwt>0</asrwt>
<pdfrwt beam="1">0</pdfrwt>
<pdfrwt beam="2">0</pdfrwt>
<totfact> 0.59915649E+10</totfact>
</mgrwt>
</event>
<event>
 4    1  0.3281603E+006  0.2311512E+01  0.7546771E-02  0.2797951E+00
         22   -1    0    0    0    0  0.00000000000E+00  0.00000000000E+00  0.19240351196E+02  0.19240351196E+02  0.00000000000E+00 0.  1.
         22   -1    0    0    0    0 -0.00000000000E+00 -0.00000000000E+00 -0.30696418332E+00  0.30696418332E+00  0.00000000000E+00 0. -1.
          2    1    1    2  501    0 -0.16285597015E+01  0.16403891567E+01  0.12484312505E+02  0.12696501428E+02  0.25500000000E-02 0.  1.
         -2    1    1    2    0  501  0.16285597015E+01 -0.16403891567E+01  0.64490745071E+01  0.68508139507E+01  0.25500000000E-02 0. -1.
<mgrwt>
<rscale>  0 0.23115124E+01</rscale>
<asrwt>0</asrwt>
<pdfrwt beam="1">0</pdfrwt>
<pdfrwt beam="2">0</pdfrwt>
<totfact> 0.27041146E+12</totfact>
</mgrwt>
</event>
<event>
 4    1  0.3281603E+006  0.2466556E+01  0.7546771E-02  0.2723461E+00
         22   -1    0    0    0    0  0.00000000000E+00  0.00000000000E+00  0.13028656983E+02  0.13028656983E+02  0.00000000000E+00 0.  1.
         22   -1    0    0    0    0 -0.00000000000E+00 -0.00000000000E+00 -0.46995123262E+00  0.46995123262E+00  0.00000000000E+00 0. -1.
          2    1    1    2  501    0  0.19609831154E+01  0.14961401273E+01  0.68175770045E+01  0.72500519153E+01  0.25500000000E-02 0.  1.
         -2    1    1    2    0  501 -0.19609831154E+01 -0.14961401273E+01  0.57411287460E+01  0.62485563005E+01  0.25500000000E-02 0. -1.
<mgrwt>
<rscale>  0 0.24665556E+01</rscale>
<asrwt>0</asrwt>
<pdfrwt beam="1">0</pdfrwt>
<pdfrwt beam="2">0</pdfrwt>
<totfact> 0.27092952E+12</totfact>
</mgrwt>
</event>
<event>
 4    1  0.3281603E+006  0.5896894E+01  0.7546771E-02  0.2029060E+00
         22   -1    0    0    0    0  0.00000000000E+00  0.00000000000E+00  0.29098844212E+02  0.29098844212E+02  0.00000000000E+00 0.  1.
         22   -1    0    0    0    0 -0.00000000000E+00 -0.00000000000E+00 -0.11962820668E+01  0.11962820668E+01  0.00000000000E+00 0. -1.
          2    1    1    2  501    0  0.45007835706E+01  0.38100267583E+01  0.13457022101E+02  0.14692338377E+02  0.25500000000E-02 0.  1.
         -2    1    1    2    0  501 -0.45007835706E+01 -0.38100267583E+01  0.14445540045E+02  0.15602787903E+02  0.25500000000E-02 0. -1.
<mgrwt>
<rscale>  0 0.58968944E+01</rscale>
<asrwt>0</asrwt>
<pdfrwt beam="1">0</pdfrwt>
<pdfrwt beam="2">0</pdfrwt>
<totfact> 0.34418989E+11</totfact>
</mgrwt>
</event>
<event>
 4    1  0.3281603E+006  0.2343449E+01  0.7546771E-02  0.2781848E+00
         22   -1    0    0    0    0  0.00000000000E+00  0.00000000000E+00  0.34823195565E+01  0.34823195565E+01  0.00000000000E+00 0. -1.
         22   -1    0    0    0    0 -0.00000000000E+00 -0.00000000000E+00 -0.19722507530E+01  0.19722507530E+01  0.00000000000E+00 0.  1.
          2    1    1    2  501    0 -0.99086320652E-01 -0.23413517335E+01  0.19758908457E+01  0.30652727734E+01  0.25500000000E-02 0. -1.
         -2    1    1    2    0  501  0.99086320652E-01  0.23413517335E+01 -0.46582204215E+00  0.23892975361E+01  0.25500000000E-02 0.  1.
<mgrwt>
<rscale>  0 0.23434489E+01</rscale>
<asrwt>0</asrwt>
<pdfrwt beam="1">0</pdfrwt>
<pdfrwt beam="2">0</pdfrwt>
<totfact> 0.25520603E+12</totfact>
</mgrwt>
</event>
<event>
 4    1  0.3281603E+006  0.2367948E+01  0.7546771E-02  0.2769774E+00
         22   -1    0    0    0    0  0.00000000000E+00  0.00000000000E+00  0.15037635982E+01  0.15037635982E+01  0.00000000000E+00 0. -1.
         22   -1    0    0    0    0 -0.00000000000E+00 -0.00000000000E+00 -0.43407882704E+01  0.43407882704E+01  0.00000000000E+00 0.  1.
          2    1    1    2  501    0  0.14783405670E+01 -0.18497781461E+01 -0.25158036997E+01  0.34549160308E+01  0.25500000000E-02 0.  1.
         -2    1    1    2    0  501 -0.14783405670E+01  0.18497781461E+01 -0.32122097253E+00  0.23896358379E+01  0.25500000000E-02 0. -1.
<mgrwt>
<rscale>  0 0.23679477E+01</rscale>
<asrwt>0</asrwt>
<pdfrwt beam="1">0</pdfrwt>
<pdfrwt beam="2">0</pdfrwt>
<totfact> 0.26931709E+12</totfact>
</mgrwt>
</event>
<event>
 4    1  0.3281603E+006  0.2776441E+01  0.7546771E-02  0.2597925E+00
         22   -1    0    0    0    0  0.00000000000E+00  0.00000000000E+00  0.39699171267E+01  0.39699171267E+01  0.00000000000E+00 0.  1.
         22   -1    0    0    0    0 -0.00000000000E+00 -0.00000000000E+00 -0.85550453748E+01  0.85550453748E+01  0.00000000000E+00 0. -1.
          2    1    1    2  501    0  0.27269752549E+01  0.52174887653E+00  0.32135339614E+01  0.42468132705E+01  0.25500000000E-02 0.  1.
         -2    1    1    2    0  501 -0.27269752549E+01 -0.52174887653E+00 -0.77986622094E+01  0.82781492310E+01  0.25500000000E-02 0. -1.
<mgrwt>
<rscale>  0 0.27764406E+01</rscale>
<asrwt>0</asrwt>
<pdfrwt beam="1">0</pdfrwt>
<pdfrwt beam="2">0</pdfrwt>
<totfact> 0.38814228E+11</totfact>
</mgrwt>
</event>
<event>
 4    1  0.3281603E+006  0.3157564E+01  0.7546771E-02  0.2474617E+00
         22   -1    0    0    0    0  0.00000000000E+00  0.00000000000E+00  0.49524098474E+00  0.49524098474E+00  0.00000000000E+00 0.  1.
         22   -1    0    0    0    0 -0.00000000000E+00 -0.00000000000E+00 -0.30905371606E+02  0.30905371606E+02  0.00000000000E+00 0. -1.
          2    1    1    2  501    0  0.28721011912E+01 -0.13119605750E+01 -0.59353560345E+01  0.67229951332E+01  0.25500000000E-02 0.  1.
         -2    1    1    2    0  501 -0.28721011912E+01  0.13119605750E+01 -0.24474774587E+02  0.24677617458E+02  0.25500000000E-02 0. -1.
<mgrwt>
<rscale>  0 0.31575643E+01</rscale>
<asrwt>0</asrwt>
<pdfrwt beam="1">0</pdfrwt>
<pdfrwt beam="2">0</pdfrwt>
<totfact> 0.86888919E+11</totfact>
</mgrwt>
</event>
<event>
 4    1  0.3281603E+006  0.2107834E+01  0.7546771E-02  0.2911556E+00
         22   -1    0    0    0    0  0.00000000000E+00  0.00000000000E+00  0.22842661184E+02  0.22842661184E+02  0.00000000000E+00 0. -1.
         22   -1    0    0    0    0 -0.00000000000E+00 -0.00000000000E+00 -0.25488441311E+00  0.25488441311E+00  0.00000000000E+00 0.  1.
          2    1    1    2  501    0 -0.11473994721E+01  0.17681720254E+01  0.16914921099E+02  0.17045747861E+02  0.25500000000E-02 0. -1.
         -2    1    1    2    0  501  0.11473994721E+01 -0.17681720254E+01  0.56728556722E+01  0.60517977362E+01  0.25500000000E-02 0.  1.
<mgrwt>
<rscale>  0 0.21078340E+01</rscale>
<asrwt>0</asrwt>
<pdfrwt beam="1">0</pdfrwt>
<pdfrwt beam="2">0</pdfrwt>
<totfact> 0.26871716E+12</totfact>
</mgrwt>
</event>
<event>
 4    1  0.3281603E+006  0.2075427E+01  0.7546771E-02  0.2931608E+00
         22   -1    0    0    0    0  0.00000000000E+00  0.00000000000E+00  0.37264687975E+01  0.37264687975E+01  0.00000000000E+00 0.  1.
         22   -1    0    0    0    0 -0.00000000000E+00 -0.00000000000E+00 -0.12007257625E+01  0.12007257625E+01  0.00000000000E+00 0. -1.
          2    1    1    2  501    0  0.20513127381E+01 -0.31544526697E+00  0.78682489431E+00  0.22195696841E+01  0.25500000000E-02 0. -1.
         -2    1    1    2    0  501 -0.20513127381E+01  0.31544526697E+00  0.17389181407E+01  0.27076248758E+01  0.25500000000E-02 0.  1.
<mgrwt>
<rscale>  0 0.20754267E+01</rscale>
<asrwt>0</asrwt>
<pdfrwt beam="1">0</pdfrwt>
<pdfrwt beam="2">0</pdfrwt>
<totfact> 0.41730657E+12</totfact>
</mgrwt>
</event>
<event>
 4    1  0.3281603E+006  0.3154728E+01  0.7546771E-02  0.2475436E+00
         22   -1    0    0    0    0  0.00000000000E+00  0.00000000000E+00  0.11647559919E+01  0.11647559919E+01  0.00000000000E+00 0. -1.
         22   -1    0    0    0    0 -0.00000000000E+00 -0.00000000000E+00 -0.91326580268E+01  0.91326580268E+01  0.00000000000E+00 0.  1.
          2    1    1    2  501    0 -0.13043160650E+01  0.28724660759E+01 -0.26773874959E+01  0.41377182190E+01  0.25500000000E-02 0.  1.
         -2    1    1    2    0  501  0.13043160650E+01 -0.28724660759E+01 -0.52905145391E+01  0.61596957997E+01  0.25500000000E-02 0. -1.
<mgrwt>
<rscale>  0 0.31547279E+01</rscale>
<asrwt>0</asrwt>
<pdfrwt beam="1">0</pdfrwt>
<pdfrwt beam="2">0</pdfrwt>
<totfact> 0.14873854E+12</totfact>
</mgrwt>
</event>
<event>
 4    1  0.3281603E+006  0.5444843E+01  0.7546771E-02  0.2073372E+00
         22   -1    0    0    0    0  0.00000000000E+00  0.00000000000E+00  0.95316795192E+00  0.95316795192E+00  0.00000000000E+00 0.  1.
         22   -1    0    0    0    0 -0.00000000000E+00 -0.00000000000E+00 -0.36784282282E+02  0.36784282282E+02  0.00000000000E+00 0. -1.
          2    1    1    2  501    0  0.13927781554E+00 -0.54430605748E+01 -0.25331005071E+02  0.25909576051E+02  0.25500000000E-02 0. -1.
         -2    1    1    2    0  501 -0.13927781554E+00  0.54430605748E+01 -0.10500109258E+02  0.11827874182E+02  0.25500000000E-02 0.  1.
<mgrwt>
<rscale>  0 0.54448428E+01</rscale>
<asrwt>0</asrwt>
<pdfrwt beam="1">0</pdfrwt>
<pdfrwt beam="2">0</pdfrwt>
<totfact> 0.33051832E+11</totfact>
</mgrwt>
</event>
<event>
 4    1  0.3281603E+006  0.3046841E+01  0.7546771E-02  0.2507582E+00
         22   -1    0    0    0    0  0.00000000000E+00  0.00000000000E+00  0.39768364347E+00  0.39768364347E+00  0.00000000000E+00 0.  1.
         22   -1    0    0    0    0 -0.00000000000E+00 -0.00000000000E+00 -0.23361723551E+02  0.23361723551E+02  0.00000000000E+00 0. -1.
          2    1    1    2  501    0  0.22996932200E+01  0.19986605913E+01 -0.11148203899E+02  0.11557062332E+02  0.25500000000E-02 0. -1.
         -2    1    1    2    0  501 -0.22996932200E+01 -0.19986605913E+01 -0.11815836009E+02  0.12202344863E+02  0.25500000000E-02 0.  1.
<mgrwt>
<rscale>  0 0.30468409E+01</rscale>
<asrwt>0</asrwt>
<pdfrwt beam="1">0</pdfrwt>
<pdfrwt beam="2">0</pdfrwt>
<totfact> 0.15859365E+12</totfact>
</mgrwt>
</event>
<event>
 4    1  0.3281603E+006  0.3184372E+01  0.7546771E-02  0.2466943E+00
         22   -1    0    0    0    0  0.00000000000E+00  0.00000000000E+00  0.62060973067E+01  0.62060973067E+01  0.00000000000E+00 0. -1.
         22   -1    0    0    0    0 -0.00000000000E+00 -0.00000000000E+00 -0.22984706359E+01  0.22984706359E+01  0.00000000000E+00 0.  1.
          2    1    1    2  501    0 -0.31141224745E+01 -0.66517630547E+00  0.42403017978E+01  0.53028656538E+01  0.25500000000E-02 0. -1.
         -2    1    1    2    0  501  0.31141224745E+01  0.66517630547E+00 -0.33267512704E+00  0.32017022888E+01  0.25500000000E-02 0.  1.
<mgrwt>
<rscale>  0 0.31843720E+01</rscale>
<asrwt>0</asrwt>
<pdfrwt beam="1">0</pdfrwt>
<pdfrwt beam="2">0</pdfrwt>
<totfact> 0.10797011E+12</totfact>
</mgrwt>
</event>
<event>
 4    1  0.3281603E+006  0.2252919E+01  0.7546771E-02  0.2828618E+00
         22   -1    0    0    0    0  0.00000000000E+00  0.00000000000E+00  0.29412627311E+01  0.29412627311E+01  0.00000000000E+00 0.  1.
         22   -1    0    0    0    0 -0.00000000000E+00 -0.00000000000E+00 -0.17322082367E+01  0.17322082367E+01  0.00000000000E+00 0. -1.
          2    1    1    2  501    0  0.18059705534E+01  0.13468883333E+01  0.46094822320E+00  0.22995907438E+01  0.25500000000E-02 0.  1.
         -2    1    1    2    0  501 -0.18059705534E+01 -0.13468883333E+01  0.74810627122E+00  0.23738802240E+01  0.25500000000E-02 0. -1.
<mgrwt>
<rscale>  0 0.22529191E+01</rscale>
<asrwt>0</asrwt>
<pdfrwt beam="1">0</pdfrwt>
<pdfrwt beam="2">0</pdfrwt>
<totfact> 0.36125920E+12</totfact>
</mgrwt>
</event>
<event>
 4    1  0.3281603E+006  0.3469880E+01  0.7546771E-02  0.2391749E+00
         22   -1    0    0    0    0  0.00000000000E+00  0.00000000000E+00  0.45891210118E+01  0.45891210118E+01  0.00000000000E+00 0.  1.
         22   -1    0    0    0    0 -0.00000000000E+00 -0.00000000000E+00 -0.26482373656E+01  0.26482373656E+01  0.00000000000E+00 0. -1.
          2    1    1    2  501    0 -0.21984814883E+01  0.26845369130E+01  0.62148095133E+00  0.35250963628E+01  0.25500000000E-02 0. -1.
         -2    1    1    2    0  501  0.21984814883E+01 -0.26845369130E+01  0.13194026949E+01  0.37122620146E+01  0.25500000000E-02 0.  1.
<mgrwt>
<rscale>  0 0.34698798E+01</rscale>
<asrwt>0</asrwt>
<pdfrwt beam="1">0</pdfrwt>
<pdfrwt beam="2">0</pdfrwt>
<totfact> 0.13100189E+12</totfact>
</mgrwt>
</event>
<event>
 4    1  0.3281603E+006  0.2818058E+01  0.7546771E-02  0.2583002E+00
         22   -1    0    0    0    0  0.00000000000E+00  0.00000000000E+00  0.14480260123E+03  0.14480260123E+03  0.00000000000E+00 0.  1.
         22   -1    0    0    0    0 -0.00000000000E+00 -0.00000000000E+00 -0.68893915911E-01  0.68893915911E-01  0.00000000000E+00 0. -1.
          2    1    1    2  501    0  0.73527596039E+00 -0.27204437999E+01  0.10507909313E+03  0.10511687431E+03  0.25500000000E-02 0.  1.
         -2    1    1    2    0  501 -0.73527596039E+00  0.27204437999E+01  0.39654614190E+02  0.39754620842E+02  0.25500000000E-02 0. -1.
<mgrwt>
<rscale>  0 0.28180581E+01</rscale>
<asrwt>0</asrwt>
<pdfrwt beam="1">0</pdfrwt>
<pdfrwt beam="2">0</pdfrwt>
<totfact> 0.95972692E+11</totfact>
</mgrwt>
</event>
<event>
 4    1  0.3281603E+006  0.2226206E+01  0.7546771E-02  0.2843110E+00
         22   -1    0    0    0    0  0.00000000000E+00  0.00000000000E+00  0.13448705450E+01  0.13448705450E+01  0.00000000000E+00 0.  1.
         22   -1    0    0    0    0 -0.00000000000E+00 -0.00000000000E+00 -0.54721647899E+01  0.54721647899E+01  0.00000000000E+00 0. -1.
          2    1    1    2  501    0  0.28352146317E+00  0.22080761446E+01 -0.11579794923E+00  0.22292151866E+01  0.25500000000E-02 0.  1.
         -2    1    1    2    0  501 -0.28352146317E+00 -0.22080761446E+01 -0.40114962957E+01  0.45878201483E+01  0.25500000000E-02 0. -1.
<mgrwt>
<rscale>  0 0.22262056E+01</rscale>
<asrwt>0</asrwt>
<pdfrwt beam="1">0</pdfrwt>
<pdfrwt beam="2">0</pdfrwt>
<totfact> 0.23280141E+12</totfact>
</mgrwt>
</event>
<event>
 4    1  0.3281603E+006  0.3622358E+01  0.7546771E-02  0.2355871E+00
         22   -1    0    0    0    0  0.00000000000E+00  0.00000000000E+00  0.92175062633E+01  0.92175062633E+01  0.00000000000E+00 0. -1.
         22   -1    0    0    0    0 -0.00000000000E+00 -0.00000000000E+00 -0.92236500338E+01  0.92236500338E+01  0.00000000000E+00 0.  1.
          2    1    1    2  501    0  0.30545471426E+01  0.19471038422E+01  0.84761722920E+01  0.92177532427E+01  0.25500000000E-02 0. -1.
         -2    1    1    2    0  501 -0.30545471426E+01 -0.19471038422E+01 -0.84823160624E+01  0.92234030544E+01  0.25500000000E-02 0.  1.
<mgrwt>
<rscale>  0 0.36223581E+01</rscale>
<asrwt>0</asrwt>
<pdfrwt beam="1">0</pdfrwt>
<pdfrwt beam="2">0</pdfrwt>
<totfact> 0.12997259E+11</totfact>
</mgrwt>
</event>
<event>
 4    1  0.3281603E+006  0.3010198E+01  0.7546771E-02  0.2518967E+00
         22   -1    0    0    0    0  0.00000000000E+00  0.00000000000E+00  0.41230427276E+01  0.41230427276E+01  0.00000000000E+00 0.  1.
         22   -1    0    0    0    0 -0.00000000000E+00 -0.00000000000E+00 -0.26231477019E+01  0.26231477019E+01  0.00000000000E+00 0. -1.
          2    1    1    2  501    0 -0.65836820661E+00  0.29373184189E+01 -0.60845963691E+00  0.30710776320E+01  0.25500000000E-02 0. -1.
         -2    1    1    2    0  501  0.65836820661E+00 -0.29373184189E+01  0.21083546626E+01  0.36751127976E+01  0.25500000000E-02 0.  1.
<mgrwt>
<rscale>  0 0.30101984E+01</rscale>
<asrwt>0</asrwt>
<pdfrwt beam="1">0</pdfrwt>
<pdfrwt beam="2">0</pdfrwt>
<totfact> 0.15029556E+12</totfact>
</mgrwt>
</event>
<event>
 4    1  0.3281603E+006  0.2700247E+01  0.7546771E-02  0.2626331E+00
         22   -1    0    0    0    0  0.00000000000E+00  0.00000000000E+00  0.13938580214E+01  0.13938580214E+01  0.00000000000E+00 0.  1.
         22   -1    0    0    0    0 -0.00000000000E+00 -0.00000000000E+00 -0.89031102349E+01  0.89031102349E+01  0.00000000000E+00 0. -1.
          2    1    1    2  501    0  0.14203890930E+01  0.22964804763E+01 -0.44816295313E+00  0.27371854684E+01  0.25500000000E-02 0.  1.
         -2    1    1    2    0  501 -0.14203890930E+01 -0.22964804763E+01 -0.70610892604E+01  0.75597827878E+01  0.25500000000E-02 0. -1.
<mgrwt>
<rscale>  0 0.27002471E+01</rscale>
<asrwt>0</asrwt>
<pdfrwt beam="1">0</pdfrwt>
<pdfrwt beam="2">0</pdfrwt>
<totfact> 0.12482645E+12</totfact>
</mgrwt>
</event>
<event>
 4    1  0.3281603E+006  0.2828738E+01  0.7546771E-02  0.2579237E+00
         22   -1    0    0    0    0  0.00000000000E+00  0.00000000000E+00  0.59267224162E+01  0.59267224162E+01  0.00000000000E+00 0. -1.
         22   -1    0    0    0    0 -0.00000000000E+00 -0.00000000000E+00 -0.17032719665E+01  0.17032719665E+01  0.00000000000E+00 0.  1.
          2    1    1    2  501    0 -0.17799945577E+01  0.21984928767E+01  0.38488698837E+01  0.47765633502E+01  0.25500000000E-02 0.  1.
         -2    1    1    2    0  501  0.17799945577E+01 -0.21984928767E+01  0.37458056600E+00  0.28534310325E+01  0.25500000000E-02 0. -1.
<mgrwt>
<rscale>  0 0.28287379E+01</rscale>
<asrwt>0</asrwt>
<pdfrwt beam="1">0</pdfrwt>
<pdfrwt beam="2">0</pdfrwt>
<totfact> 0.16133847E+12</totfact>
</mgrwt>
</event>
<event>
 4    1  0.3281603E+006  0.2060618E+01  0.7546771E-02  0.2940975E+00
         22   -1    0    0    0    0  0.00000000000E+00  0.00000000000E+00  0.24999692421E+02  0.24999692421E+02  0.00000000000E+00 0.  1.
         22   -1    0    0    0    0 -0.00000000000E+00 -0.00000000000E+00 -0.18060665540E+00  0.18060665540E+00  0.00000000000E+00 0. -1.
          2    1    1    2  501    0  0.50549385486E+00  0.19976529671E+01  0.15482403660E+02  0.15618929893E+02  0.25500000000E-02 0.  1.
         -2    1    1    2    0  501 -0.50549385486E+00 -0.19976529671E+01  0.93366821054E+01  0.95613691830E+01  0.25500000000E-02 0. -1.
<mgrwt>
<rscale>  0 0.20606183E+01</rscale>
<asrwt>0</asrwt>
<pdfrwt beam="1">0</pdfrwt>
<pdfrwt beam="2">0</pdfrwt>
<totfact> 0.35238596E+12</totfact>
</mgrwt>
</event>
<event>
 4    1  0.3281603E+006  0.2502927E+01  0.7546771E-02  0.2707241E+00
         22   -1    0    0    0    0  0.00000000000E+00  0.00000000000E+00  0.37946718012E+02  0.37946718012E+02  0.00000000000E+00 0.  1.
         22   -1    0    0    0    0 -0.00000000000E+00 -0.00000000000E+00 -0.16928427977E+00  0.16928427977E+00  0.00000000000E+00 0. -1.
          2    1    1    2  501    0 -0.17526053018E+01  0.17869004486E+01  0.15889080877E+02  0.16085009673E+02  0.25500000000E-02 0. -1.
         -2    1    1    2    0  501  0.17526053018E+01 -0.17869004486E+01  0.21888352855E+02  0.22030992619E+02  0.25500000000E-02 0.  1.
<mgrwt>
<rscale>  0 0.25029273E+01</rscale>
<asrwt>0</asrwt>
<pdfrwt beam="1">0</pdfrwt>
<pdfrwt beam="2">0</pdfrwt>
<totfact> 0.22232241E+12</totfact>
</mgrwt>
</event>
<event>
 4    1  0.3281603E+006  0.3249744E+01  0.7546771E-02  0.2448700E+00
         22   -1    0    0    0    0  0.00000000000E+00  0.00000000000E+00  0.65782315562E+01  0.65782315562E+01  0.00000000000E+00 0.  1.
         22   -1    0    0    0    0 -0.00000000000E+00 -0.00000000000E+00 -0.18900977997E+01  0.18900977997E+01  0.00000000000E+00 0. -1.
          2    1    1    2  501    0  0.88906374254E+00  0.31257630879E+01  0.39873072872E+01  0.51438754966E+01  0.25500000000E-02 0.  1.
         -2    1    1    2    0  501 -0.88906374254E+00 -0.31257630879E+01  0.70082646929E+00  0.33244538593E+01  0.25500000000E-02 0. -1.
<mgrwt>
<rscale>  0 0.32497439E+01</rscale>
<asrwt>0</asrwt>
<pdfrwt beam="1">0</pdfrwt>
<pdfrwt beam="2">0</pdfrwt>
<totfact> 0.12634539E+12</totfact>
</mgrwt>
</event>
<event>
 4    1  0.3281603E+006  0.2664080E+01  0.7546771E-02  0.2640333E+00
         22   -1    0    0    0    0  0.00000000000E+00  0.00000000000E+00  0.17172403242E+00  0.17172403242E+00  0.00000000000E+00 0.  1.
         22   -1    0    0    0    0 -0.00000000000E+00 -0.00000000000E+00 -0.47221468269E+02  0.47221468269E+02  0.00000000000E+00 0. -1.
          2    1    1    2  501    0 -0.25907329277E+01  0.62082132673E+00 -0.15154692771E+02  0.15387073656E+02  0.25500000000E-02 0.  1.
         -2    1    1    2    0  501  0.25907329277E+01 -0.62082132673E+00 -0.31895051466E+02  0.32006118645E+02  0.25500000000E-02 0. -1.
<mgrwt>
<rscale>  0 0.26640801E+01</rscale>
<asrwt>0</asrwt>
<pdfrwt beam="1">0</pdfrwt>
<pdfrwt beam="2">0</pdfrwt>
<totfact> 0.16456082E+12</totfact>
</mgrwt>
</event>
<event>
 4    1  0.3281603E+006  0.3138824E+01  0.7546771E-02  0.2480051E+00
         22   -1    0    0    0    0  0.00000000000E+00  0.00000000000E+00  0.86099849536E+02  0.86099849536E+02  0.00000000000E+00 0.  1.
         22   -1    0    0    0    0 -0.00000000000E+00 -0.00000000000E+00 -0.19303109198E+00  0.19303109198E+00  0.00000000000E+00 0. -1.
          2    1    1    2  501    0  0.28705506764E+01  0.12697028687E+01  0.70486299931E+02  0.70556152751E+02  0.25500000000E-02 0.  1.
         -2    1    1    2    0  501 -0.28705506764E+01 -0.12697028687E+01  0.15420518513E+02  0.15736727877E+02  0.25500000000E-02 0. -1.
<mgrwt>
<rscale>  0 0.31388235E+01</rscale>
<asrwt>0</asrwt>
<pdfrwt beam="1">0</pdfrwt>
<pdfrwt beam="2">0</pdfrwt>
<totfact> 0.64335011E+11</totfact>
</mgrwt>
</event>
<event>
 4    1  0.3281603E+006  0.2146577E+01  0.7546771E-02  0.2888353E+00
         22   -1    0    0    0    0  0.00000000000E+00  0.00000000000E+00  0.30038605269E+02  0.30038605269E+02  0.00000000000E+00 0. -1.
         22   -1    0    0    0    0 -0.00000000000E+00 -0.00000000000E+00 -0.15343747109E+00  0.15343747109E+00  0.00000000000E+00 0.  1.
          2    1    1    2  501    0 -0.21395765635E+01 -0.17320573859E+00  0.15191490827E+02  0.15342398383E+02  0.25500000000E-02 0. -1.
         -2    1    1    2    0  501  0.21395765635E+01  0.17320573859E+00  0.14693676970E+02  0.14849644356E+02  0.25500000000E-02 0.  1.
<mgrwt>
<rscale>  0 0.21465774E+01</rscale>
<asrwt>0</asrwt>
<pdfrwt beam="1">0</pdfrwt>
<pdfrwt beam="2">0</pdfrwt>
<totfact> 0.33476581E+12</totfact>
</mgrwt>
</event>
<event>
 4    1  0.3281603E+006  0.2759234E+01  0.7546771E-02  0.2604215E+00
         22   -1    0    0    0    0  0.00000000000E+00  0.00000000000E+00  0.27274579777E+00  0.27274579777E+00  0.00000000000E+00 0.  1.
         22   -1    0    0    0    0 -0.00000000000E+00 -0.00000000000E+00 -0.29177384943E+02  0.29177384943E+02  0.00000000000E+00 0. -1.
          2    1    1    2  501    0  0.25128037371E+01 -0.11398169075E+01 -0.17516654522E+02  0.17732641014E+02  0.25500000000E-02 0. -1.
         -2    1    1    2    0  501 -0.25128037371E+01  0.11398169075E+01 -0.11387984624E+02  0.11717489727E+02  0.25500000000E-02 0.  1.
<mgrwt>
<rscale>  0 0.27592339E+01</rscale>
<asrwt>0</asrwt>
<pdfrwt beam="1">0</pdfrwt>
<pdfrwt beam="2">0</pdfrwt>
<totfact> 0.18284330E+12</totfact>
</mgrwt>
</event>
<event>
 4    1  0.3281603E+006  0.2056390E+01  0.7546771E-02  0.2943674E+00
         22   -1    0    0    0    0  0.00000000000E+00  0.00000000000E+00  0.79397059969E+01  0.79397059969E+01  0.00000000000E+00 0.  1.
         22   -1    0    0    0    0 -0.00000000000E+00 -0.00000000000E+00 -0.69691734819E+00  0.69691734819E+00  0.00000000000E+00 0. -1.
          2    1    1    2  501    0 -0.20001530354E+01 -0.47761925998E+00  0.57181918626E+01  0.60767143262E+01  0.25500000000E-02 0.  1.
         -2    1    1    2    0  501  0.20001530354E+01  0.47761925998E+00  0.15245967862E+01  0.25599090189E+01  0.25500000000E-02 0. -1.
<mgrwt>
<rscale>  0 0.20563898E+01</rscale>
<asrwt>0</asrwt>
<pdfrwt beam="1">0</pdfrwt>
<pdfrwt beam="2">0</pdfrwt>
<totfact> 0.31611391E+12</totfact>
</mgrwt>
</event>
<event>
 4    1  0.3281603E+006  0.3594573E+01  0.7546771E-02  0.2362211E+00
         22   -1    0    0    0    0  0.00000000000E+00  0.00000000000E+00  0.77353579130E+01  0.77353579130E+01  0.00000000000E+00 0.  1.
         22   -1    0    0    0    0 -0.00000000000E+00 -0.00000000000E+00 -0.16928877283E+01  0.16928877283E+01  0.00000000000E+00 0. -1.
          2    1    1    2  501    0  0.34037284371E+01  0.11556745371E+01  0.24776222166E+01  0.43657266589E+01  0.25500000000E-02 0. -1.
         -2    1    1    2    0  501 -0.34037284371E+01 -0.11556745371E+01  0.35648479681E+01  0.50625189824E+01  0.25500000000E-02 0.  1.
<mgrwt>
<rscale>  0 0.35945733E+01</rscale>
<asrwt>0</asrwt>
<pdfrwt beam="1">0</pdfrwt>
<pdfrwt beam="2">0</pdfrwt>
<totfact> 0.11819392E+12</totfact>
</mgrwt>
</event>
<event>
 4    1  0.3281603E+006  0.2107409E+01  0.7546771E-02  0.2911815E+00
         22   -1    0    0    0    0  0.00000000000E+00  0.00000000000E+00  0.58738973634E+02  0.58738973634E+02  0.00000000000E+00 0.  1.
         22   -1    0    0    0    0 -0.00000000000E+00 -0.00000000000E+00 -0.19053256206E+00  0.19053256206E+00  0.00000000000E+00 0. -1.
          2    1    1    2  501    0 -0.31875258040E+00  0.20831618074E+01  0.52157773596E+02  0.52200330644E+02  0.25500000000E-02 0.  1.
         -2    1    1    2    0  501  0.31875258040E+00 -0.20831618074E+01  0.63906674762E+01  0.67291755526E+01  0.25500000000E-02 0. -1.
<mgrwt>
<rscale>  0 0.21074090E+01</rscale>
<asrwt>0</asrwt>
<pdfrwt beam="1">0</pdfrwt>
<pdfrwt beam="2">0</pdfrwt>
<totfact> 0.10976384E+12</totfact>
</mgrwt>
</event>
<event>
 4    1  0.3281603E+006  0.3991150E+01  0.7546771E-02  0.2278989E+00
         22   -1    0    0    0    0  0.00000000000E+00  0.00000000000E+00  0.60697797260E+01  0.60697797260E+01  0.00000000000E+00 0.  1.
         22   -1    0    0    0    0 -0.00000000000E+00 -0.00000000000E+00 -0.39463897587E+01  0.39463897587E+01  0.00000000000E+00 0. -1.
          2    1    1    2  501    0  0.23452328892E+01  0.32294200628E+01  0.39603234339E+01  0.56225829874E+01  0.25500000000E-02 0.  1.
         -2    1    1    2    0  501 -0.23452328892E+01 -0.32294200628E+01 -0.18369334666E+01  0.43935864973E+01  0.25500000000E-02 0. -1.
<mgrwt>
<rscale>  0 0.39911499E+01</rscale>
<asrwt>0</asrwt>
<pdfrwt beam="1">0</pdfrwt>
<pdfrwt beam="2">0</pdfrwt>
<totfact> 0.58951781E+11</totfact>
</mgrwt>
</event>
<event>
 4    1  0.3281603E+006  0.3110409E+01  0.7546771E-02  0.2488401E+00
         22   -1    0    0    0    0  0.00000000000E+00  0.00000000000E+00  0.21970735749E+01  0.21970735749E+01  0.00000000000E+00 0.  1.
         22   -1    0    0    0    0 -0.00000000000E+00 -0.00000000000E+00 -0.33324317391E+02  0.33324317391E+02  0.00000000000E+00 0. -1.
          2    1    1    2  501    0 -0.15124239169E+01  0.27179421526E+01  0.98208032412E+00  0.32617669927E+01  0.25500000000E-02 0.  1.
         -2    1    1    2    0  501  0.15124239169E+01 -0.27179421526E+01 -0.32109324140E+02  0.32259623973E+02  0.25500000000E-02 0. -1.
<mgrwt>
<rscale>  0 0.31104087E+01</rscale>
<asrwt>0</asrwt>
<pdfrwt beam="1">0</pdfrwt>
<pdfrwt beam="2">0</pdfrwt>
<totfact> 0.14364948E+11</totfact>
</mgrwt>
</event>
<event>
 4    1  0.3281603E+006  0.2024940E+01  0.7546771E-02  0.2964091E+00
         22   -1    0    0    0    0  0.00000000000E+00  0.00000000000E+00  0.13110553781E+01  0.13110553781E+01  0.00000000000E+00 0.  1.
         22   -1    0    0    0    0 -0.00000000000E+00 -0.00000000000E+00 -0.34271399565E+01  0.34271399565E+01  0.00000000000E+00 0. -1.
          2    1    1    2  501    0  0.14472545491E+01 -0.14162730751E+01 -0.35757804270E+00  0.20562693676E+01  0.25500000000E-02 0.  1.
         -2    1    1    2    0  501 -0.14472545491E+01  0.14162730751E+01 -0.17585065357E+01  0.26819259669E+01  0.25500000000E-02 0. -1.
<mgrwt>
<rscale>  0 0.20249399E+01</rscale>
<asrwt>0</asrwt>
<pdfrwt beam="1">0</pdfrwt>
<pdfrwt beam="2">0</pdfrwt>
<totfact> 0.41623499E+12</totfact>
</mgrwt>
</event>
<event>
 4    1  0.3281603E+006  0.2433074E+01  0.7546771E-02  0.2738792E+00
         22   -1    0    0    0    0  0.00000000000E+00  0.00000000000E+00  0.26007224760E+00  0.26007224760E+00  0.00000000000E+00 0. -1.
         22   -1    0    0    0    0 -0.00000000000E+00 -0.00000000000E+00 -0.22854942300E+02  0.22854942300E+02  0.00000000000E+00 0.  1.
          2    1    1    2  501    0  0.26309056297E+00  0.24188066754E+01 -0.12033170103E+02  0.12276686508E+02  0.25500000000E-02 0.  1.
         -2    1    1    2    0  501 -0.26309056297E+00 -0.24188066754E+01 -0.10561699949E+02  0.10838328040E+02  0.25500000000E-02 0. -1.
<mgrwt>
<rscale>  0 0.24330740E+01</rscale>
<asrwt>0</asrwt>
<pdfrwt beam="1">0</pdfrwt>
<pdfrwt beam="2">0</pdfrwt>
<totfact> 0.26256487E+12</totfact>
</mgrwt>
</event>
<event>
 4    1  0.3281603E+006  0.2129964E+01  0.7546771E-02  0.2898202E+00
         22   -1    0    0    0    0  0.00000000000E+00  0.00000000000E+00  0.10154790960E+02  0.10154790960E+02  0.00000000000E+00 0.  1.
         22   -1    0    0    0    0 -0.00000000000E+00 -0.00000000000E+00 -0.74275162619E+00  0.74275162619E+00  0.00000000000E+00 0. -1.
          2    1    1    2  501    0  0.63027474018E+00  0.20345747196E+01  0.81456915653E+01  0.84195628222E+01  0.25500000000E-02 0.  1.
         -2    1    1    2    0  501 -0.63027474018E+00 -0.20345747196E+01  0.12663477688E+01  0.24779797642E+01  0.25500000000E-02 0. -1.
<mgrwt>
<rscale>  0 0.21299641E+01</rscale>
<asrwt>0</asrwt>
<pdfrwt beam="1">0</pdfrwt>
<pdfrwt beam="2">0</pdfrwt>
<totfact> 0.21853918E+12</totfact>
</mgrwt>
</event>
<event>
 4    1  0.3281603E+006  0.2676552E+01  0.7546771E-02  0.2635465E+00
         22   -1    0    0    0    0  0.00000000000E+00  0.00000000000E+00  0.20058842830E+01  0.20058842830E+01  0.00000000000E+00 0.  1.
         22   -1    0    0    0    0 -0.00000000000E+00 -0.00000000000E+00 -0.35798324826E+01  0.35798324826E+01  0.00000000000E+00 0. -1.
          2    1    1    2  501    0 -0.26629178033E+01  0.26979700263E+00 -0.92206914808E+00  0.28309255847E+01  0.25500000000E-02 0. -1.
         -2    1    1    2    0  501  0.26629178033E+01 -0.26979700263E+00 -0.65187905144E+00  0.27547911809E+01  0.25500000000E-02 0.  1.
<mgrwt>
<rscale>  0 0.26765515E+01</rscale>
<asrwt>0</asrwt>
<pdfrwt beam="1">0</pdfrwt>
<pdfrwt beam="2">0</pdfrwt>
<totfact> 0.24228975E+12</totfact>
</mgrwt>
</event>
<event>
 4    1  0.3281603E+006  0.3938175E+01  0.7546771E-02  0.2289270E+00
         22   -1    0    0    0    0  0.00000000000E+00  0.00000000000E+00  0.28252532756E+01  0.28252532756E+01  0.00000000000E+00 0. -1.
         22   -1    0    0    0    0 -0.00000000000E+00 -0.00000000000E+00 -0.80708981143E+01  0.80708981143E+01  0.00000000000E+00 0.  1.
          2    1    1    2  501    0 -0.35842471351E+01  0.16316832332E+01  0.45830602695E+00  0.39647532856E+01  0.25500000000E-02 0. -1.
         -2    1    1    2    0  501  0.35842471351E+01 -0.16316832332E+01 -0.57039508657E+01  0.69313981043E+01  0.25500000000E-02 0.  1.
<mgrwt>
<rscale>  0 0.39381752E+01</rscale>
<asrwt>0</asrwt>
<pdfrwt beam="1">0</pdfrwt>
<pdfrwt beam="2">0</pdfrwt>
<totfact> 0.62012375E+11</totfact>
</mgrwt>
</event>
<event>
 4    1  0.3281603E+006  0.2310970E+01  0.7546771E-02  0.2798228E+00
         22   -1    0    0    0    0  0.00000000000E+00  0.00000000000E+00  0.47279390224E+00  0.47279390224E+00  0.00000000000E+00 0.  1.
         22   -1    0    0    0    0 -0.00000000000E+00 -0.00000000000E+00 -0.31130537311E+02  0.31130537311E+02  0.00000000000E+00 0. -1.
          2    1    1    2  501    0 -0.17140565512E+01 -0.15500270502E+01 -0.27157407626E+01  0.35659259820E+01  0.25500000000E-02 0.  1.
         -2    1    1    2    0  501  0.17140565512E+01  0.15500270502E+01 -0.27942002646E+02  0.28037405231E+02  0.25500000000E-02 0. -1.
<mgrwt>
<rscale>  0 0.23109695E+01</rscale>
<asrwt>0</asrwt>
<pdfrwt beam="1">0</pdfrwt>
<pdfrwt beam="2">0</pdfrwt>
<totfact> 0.90709590E+11</totfact>
</mgrwt>
</event>
<event>
 4    1  0.3281603E+006  0.2349492E+01  0.7546771E-02  0.2778848E+00
         22   -1    0    0    0    0  0.00000000000E+00  0.00000000000E+00  0.12203724113E+00  0.12203724113E+00  0.00000000000E+00 0. -1.
         22   -1    0    0    0    0 -0.00000000000E+00 -0.00000000000E+00 -0.57484110552E+02  0.57484110552E+02  0.00000000000E+00 0.  1.
          2    1    1    2  501    0  0.15848212200E+01 -0.17344883560E+01 -0.15384085907E+02  0.15562461690E+02  0.25500000000E-02 0. -1.
         -2    1    1    2    0  501 -0.15848212200E+01  0.17344883560E+01 -0.41977987404E+02  0.42043686103E+02  0.25500000000E-02 0.  1.
<mgrwt>
<rscale>  0 0.23494924E+01</rscale>
<asrwt>0</asrwt>
<pdfrwt beam="1">0</pdfrwt>
<pdfrwt beam="2">0</pdfrwt>
<totfact> 0.18542291E+12</totfact>
</mgrwt>
</event>
<event>
 4    1  0.3281603E+006  0.2646327E+01  0.7546771E-02  0.2647335E+00
         22   -1    0    0    0    0  0.00000000000E+00  0.00000000000E+00  0.42245448096E+02  0.42245448096E+02  0.00000000000E+00 0.  1.
         22   -1    0    0    0    0 -0.00000000000E+00 -0.00000000000E+00 -0.21969333017E+00  0.21969333017E+00  0.00000000000E+00 0. -1.
          2    1    1    2  501    0  0.26029062218E+01 -0.47740837876E+00  0.31532030274E+02  0.31642881968E+02  0.25500000000E-02 0.  1.
         -2    1    1    2    0  501 -0.26029062218E+01  0.47740837876E+00  0.10493724492E+02  0.10822259458E+02  0.25500000000E-02 0. -1.
<mgrwt>
<rscale>  0 0.26463269E+01</rscale>
<asrwt>0</asrwt>
<pdfrwt beam="1">0</pdfrwt>
<pdfrwt beam="2">0</pdfrwt>
<totfact> 0.14463359E+12</totfact>
</mgrwt>
</event>
<event>
 4    1  0.3281603E+006  0.3735549E+01  0.7546771E-02  0.2330887E+00
         22   -1    0    0    0    0  0.00000000000E+00  0.00000000000E+00  0.59447338742E+00  0.59447338742E+00  0.00000000000E+00 0. -1.
         22   -1    0    0    0    0 -0.00000000000E+00 -0.00000000000E+00 -0.35868566861E+02  0.35868566861E+02  0.00000000000E+00 0.  1.
          2    1    1    2  501    0  0.15069700951E+01  0.34180928625E+01 -0.69195912843E+01  0.78635276898E+01  0.25500000000E-02 0. -1.
         -2    1    1    2    0  501 -0.15069700951E+01 -0.34180928625E+01 -0.28354502189E+02  0.28599512558E+02  0.25500000000E-02 0.  1.
<mgrwt>
<rscale>  0 0.37355487E+01</rscale>
<asrwt>0</asrwt>
<pdfrwt beam="1">0</pdfrwt>
<pdfrwt beam="2">0</pdfrwt>
<totfact> 0.58389943E+11</totfact>
</mgrwt>
</event>
<event>
 4    1  0.3281603E+006  0.2871054E+01  0.7546771E-02  0.2564568E+00
         22   -1    0    0    0    0  0.00000000000E+00  0.00000000000E+00  0.62066814523E+00  0.62066814523E+00  0.00000000000E+00 0.  1.
         22   -1    0    0    0    0 -0.00000000000E+00 -0.00000000000E+00 -0.13821994578E+02  0.13821994578E+02  0.00000000000E+00 0. -1.
          2    1    1    2  501    0  0.27399755699E+01 -0.85759876257E+00 -0.51716956787E+01  0.59151825380E+01  0.25500000000E-02 0. -1.
         -2    1    1    2    0  501 -0.27399755699E+01  0.85759876257E+00 -0.80296307539E+01  0.85274801851E+01  0.25500000000E-02 0.  1.
<mgrwt>
<rscale>  0 0.28710535E+01</rscale>
<asrwt>0</asrwt>
<pdfrwt beam="1">0</pdfrwt>
<pdfrwt beam="2">0</pdfrwt>
<totfact> 0.18401110E+12</totfact>
</mgrwt>
</event>
<event>
 4    1  0.3281603E+006  0.2814646E+01  0.7546771E-02  0.2584211E+00
         22   -1    0    0    0    0  0.00000000000E+00  0.00000000000E+00  0.18391360744E+02  0.18391360744E+02  0.00000000000E+00 0. -1.
         22   -1    0    0    0    0 -0.00000000000E+00 -0.00000000000E+00 -0.82740266601E+00  0.82740266601E+00  0.00000000000E+00 0.  1.
          2    1    1    2  501    0  0.24900301833E+01 -0.13122412690E+01  0.15435285868E+02  0.15689814652E+02  0.25500000000E-02 0. -1.
         -2    1    1    2    0  501 -0.24900301833E+01  0.13122412690E+01  0.21286722100E+01  0.35289487587E+01  0.25500000000E-02 0.  1.
<mgrwt>
<rscale>  0 0.28146463E+01</rscale>
<asrwt>0</asrwt>
<pdfrwt beam="1">0</pdfrwt>
<pdfrwt beam="2">0</pdfrwt>
<totfact> 0.93323823E+11</totfact>
</mgrwt>
</event>
<event>
 4    1  0.3281603E+006  0.2326688E+01  0.7546771E-02  0.2790247E+00
         22   -1    0    0    0    0  0.00000000000E+00  0.00000000000E+00  0.11971230167E+01  0.11971230167E+01  0.00000000000E+00 0.  1.
         22   -1    0    0    0    0 -0.00000000000E+00 -0.00000000000E+00 -0.53140837855E+01  0.53140837855E+01  0.00000000000E+00 0. -1.
          2    1    1    2  501    0  0.23266278442E+01 -0.16478038980E-01 -0.33153302970E+01  0.40502950672E+01  0.25500000000E-02 0. -1.
         -2    1    1    2    0  501 -0.23266278442E+01  0.16478038980E-01 -0.80163047187E+00  0.24609117350E+01  0.25500000000E-02 0.  1.
<mgrwt>
<rscale>  0 0.23266876E+01</rscale>
<asrwt>0</asrwt>
<pdfrwt beam="1">0</pdfrwt>
<pdfrwt beam="2">0</pdfrwt>
<totfact> 0.27546515E+12</totfact>
</mgrwt>
</event>
<event>
 4    1  0.3281603E+006  0.2094666E+01  0.7546771E-02  0.2919631E+00
         22   -1    0    0    0    0  0.00000000000E+00  0.00000000000E+00  0.19655222953E+00  0.19655222953E+00  0.00000000000E+00 0. -1.
         22   -1    0    0    0    0 -0.00000000000E+00 -0.00000000000E+00 -0.25226189372E+02  0.25226189372E+02  0.00000000000E+00 0.  1.
          2    1    1    2  501    0 -0.45264538784E+00  0.20451726086E+01 -0.82025274027E+01  0.84657593363E+01  0.25500000000E-02 0. -1.
         -2    1    1    2    0  501  0.45264538784E+00 -0.20451726086E+01 -0.16827109740E+02  0.16956982265E+02  0.25500000000E-02 0.  1.
<mgrwt>
<rscale>  0 0.20946659E+01</rscale>
<asrwt>0</asrwt>
<pdfrwt beam="1">0</pdfrwt>
<pdfrwt beam="2">0</pdfrwt>
<totfact> 0.31704444E+12</totfact>
</mgrwt>
</event>
<event>
 4    1  0.3281603E+006  0.2158191E+01  0.7546771E-02  0.2881554E+00
         22   -1    0    0    0    0  0.00000000000E+00  0.00000000000E+00  0.28428389818E+02  0.28428389818E+02  0.00000000000E+00 0.  1.
         22   -1    0    0    0    0 -0.00000000000E+00 -0.00000000000E+00 -0.26513065122E+00  0.26513065122E+00  0.00000000000E+00 0. -1.
          2    1    1    2  501    0 -0.18443101962E+01 -0.11208495684E+01  0.22949152018E+02  0.23050409295E+02  0.25500000000E-02 0. -1.
         -2    1    1    2    0  501  0.18443101962E+01  0.11208495684E+01  0.52141071494E+01  0.56431111741E+01  0.25500000000E-02 0.  1.
<mgrwt>
<rscale>  0 0.21581915E+01</rscale>
<asrwt>0</asrwt>
<pdfrwt beam="1">0</pdfrwt>
<pdfrwt beam="2">0</pdfrwt>
<totfact> 0.19506368E+12</totfact>
</mgrwt>
</event>
<event>
 4    1  0.3281603E+006  0.2217223E+01  0.7546771E-02  0.2848057E+00
         22   -1    0    0    0    0  0.00000000000E+00  0.00000000000E+00  0.12141507308E+02  0.12141507308E+02  0.00000000000E+00 0.  1.
         22   -1    0    0    0    0 -0.00000000000E+00 -0.00000000000E+00 -0.72911053133E+00  0.72911053133E+00  0.00000000000E+00 0. -1.
          2    1    1    2  501    0  0.13342450217E+01 -0.17708368762E+01  0.99974818102E+01  0.10240396578E+02  0.25500000000E-02 0.  1.
         -2    1    1    2    0  501 -0.13342450217E+01  0.17708368762E+01  0.14149149662E+01  0.26302212614E+01  0.25500000000E-02 0. -1.
<mgrwt>
<rscale>  0 0.22172234E+01</rscale>
<asrwt>0</asrwt>
<pdfrwt beam="1">0</pdfrwt>
<pdfrwt beam="2">0</pdfrwt>
<totfact> 0.17961553E+12</totfact>
</mgrwt>
</event>
<event>
 4    1  0.3281603E+006  0.2230347E+01  0.7546771E-02  0.2840841E+00
         22   -1    0    0    0    0  0.00000000000E+00  0.00000000000E+00  0.31337230599E+01  0.31337230599E+01  0.00000000000E+00 0.  1.
         22   -1    0    0    0    0 -0.00000000000E+00 -0.00000000000E+00 -0.16155710618E+01  0.16155710618E+01  0.00000000000E+00 0. -1.
          2    1    1    2  501    0  0.79727775105E+00  0.20829758781E+01  0.10726929498E+01  0.24748973692E+01  0.25500000000E-02 0. -1.
         -2    1    1    2    0  501 -0.79727775105E+00 -0.20829758781E+01  0.44545904828E+00  0.22743967524E+01  0.25500000000E-02 0.  1.
<mgrwt>
<rscale>  0 0.22303468E+01</rscale>
<asrwt>0</asrwt>
<pdfrwt beam="1">0</pdfrwt>
<pdfrwt beam="2">0</pdfrwt>
<totfact> 0.36354799E+12</totfact>
</mgrwt>
</event>
<event>
 4    1  0.3281603E+006  0.2079234E+01  0.7546771E-02  0.2929221E+00
         22   -1    0    0    0    0  0.00000000000E+00  0.00000000000E+00  0.46490069263E+00  0.46490069263E+00  0.00000000000E+00 0.  1.
         22   -1    0    0    0    0 -0.00000000000E+00 -0.00000000000E+00 -0.12484854509E+02  0.12484854509E+02  0.00000000000E+00 0. -1.
          2    1    1    2  501    0 -0.14768861039E+01  0.14635626519E+01 -0.27392998524E+01  0.34390374211E+01  0.25500000000E-02 0.  1.
         -2    1    1    2    0  501  0.14768861039E+01 -0.14635626519E+01 -0.92806539644E+01  0.95107177809E+01  0.25500000000E-02 0. -1.
<mgrwt>
<rscale>  0 0.20792342E+01</rscale>
<asrwt>0</asrwt>
<pdfrwt beam="1">0</pdfrwt>
<pdfrwt beam="2">0</pdfrwt>
<totfact> 0.28890317E+12</totfact>
</mgrwt>
</event>
<event>
 4    1  0.3281603E+006  0.2119516E+01  0.7546771E-02  0.2904473E+00
         22   -1    0    0    0    0  0.00000000000E+00  0.00000000000E+00  0.43248239267E+00  0.43248239267E+00  0.00000000000E+00 0.  1.
         22   -1    0    0    0    0 -0.00000000000E+00 -0.00000000000E+00 -0.14289698256E+02  0.14289698256E+02  0.00000000000E+00 0. -1.
          2    1    1    2  501    0 -0.21194988487E+01 -0.80332564376E-02 -0.30818613606E+01  0.37403496964E+01  0.25500000000E-02 0.  1.
         -2    1    1    2    0  501  0.21194988487E+01  0.80332564376E-02 -0.10775354502E+02  0.10981830952E+02  0.25500000000E-02 0. -1.
<mgrwt>
<rscale>  0 0.21195156E+01</rscale>
<asrwt>0</asrwt>
<pdfrwt beam="1">0</pdfrwt>
<pdfrwt beam="2">0</pdfrwt>
<totfact> 0.26566747E+12</totfact>
</mgrwt>
</event>
<event>
 4    1  0.3281603E+006  0.2363035E+01  0.7546771E-02  0.2772177E+00
         22   -1    0    0    0    0  0.00000000000E+00  0.00000000000E+00  0.12893934921E+00  0.12893934921E+00  0.00000000000E+00 0. -1.
         22   -1    0    0    0    0 -0.00000000000E+00 -0.00000000000E+00 -0.49841463589E+02  0.49841463589E+02  0.00000000000E+00 0.  1.
          2    1    1    2  501    0  0.20808147687E+01  0.11198830470E+01 -0.15809291207E+02  0.15984918615E+02  0.25500000000E-02 0. -1.
         -2    1    1    2    0  501 -0.20808147687E+01 -0.11198830470E+01 -0.33903233033E+02  0.33985484324E+02  0.25500000000E-02 0.  1.
<mgrwt>
<rscale>  0 0.23630350E+01</rscale>
<asrwt>0</asrwt>
<pdfrwt beam="1">0</pdfrwt>
<pdfrwt beam="2">0</pdfrwt>
<totfact> 0.21076868E+12</totfact>
</mgrwt>
</event>
<event>
 4    1  0.3281603E+006  0.2466331E+01  0.7546771E-02  0.2723562E+00
         22   -1    0    0    0    0  0.00000000000E+00  0.00000000000E+00  0.14367334303E+02  0.14367334303E+02  0.00000000000E+00 0.  1.
         22   -1    0    0    0    0 -0.00000000000E+00 -0.00000000000E+00 -0.43391509563E+00  0.43391509563E+00  0.00000000000E+00 0. -1.
          2    1    1    2  501    0 -0.22733666558E+01  0.95633903650E+00  0.81200683295E+01  0.84863594364E+01  0.25500000000E-02 0.  1.
         -2    1    1    2    0  501  0.22733666558E+01 -0.95633903650E+00  0.58133508778E+01  0.63148899623E+01  0.25500000000E-02 0. -1.
<mgrwt>
<rscale>  0 0.24663306E+01</rscale>
<asrwt>0</asrwt>
<pdfrwt beam="1">0</pdfrwt>
<pdfrwt beam="2">0</pdfrwt>
<totfact> 0.26293902E+12</totfact>
</mgrwt>
</event>
<event>
 4    1  0.3281603E+006  0.3635756E+01  0.7546771E-02  0.2352843E+00
         22   -1    0    0    0    0  0.00000000000E+00  0.00000000000E+00  0.22476817817E+01  0.22476817817E+01  0.00000000000E+00 0. -1.
         22   -1    0    0    0    0 -0.00000000000E+00 -0.00000000000E+00 -0.67066234719E+01  0.67066234719E+01  0.00000000000E+00 0.  1.
          2    1    1    2  501    0  0.12036240831E+01  0.34307441950E+01 -0.38002982808E+01  0.52593716536E+01  0.25500000000E-02 0. -1.
         -2    1    1    2    0  501 -0.12036240831E+01 -0.34307441950E+01 -0.65864340934E+00  0.36949336000E+01  0.25500000000E-02 0.  1.
<mgrwt>
<rscale>  0 0.36357562E+01</rscale>
<asrwt>0</asrwt>
<pdfrwt beam="1">0</pdfrwt>
<pdfrwt beam="2">0</pdfrwt>
<totfact> 0.10101363E+12</totfact>
</mgrwt>
</event>
<event>
 4    1  0.3281603E+006  0.2556713E+01  0.7546771E-02  0.2684043E+00
         22   -1    0    0    0    0  0.00000000000E+00  0.00000000000E+00  0.45554325484E+00  0.45554325484E+00  0.00000000000E+00 0.  1.
         22   -1    0    0    0    0 -0.00000000000E+00 -0.00000000000E+00 -0.17339138927E+02  0.17339138927E+02  0.00000000000E+00 0. -1.
          2    1    1    2  501    0 -0.25054133817E+01 -0.50958480646E+00 -0.12136351612E+02  0.12402733966E+02  0.25500000000E-02 0. -1.
         -2    1    1    2    0  501  0.25054133817E+01  0.50958480646E+00 -0.47472440597E+01  0.53919482150E+01  0.25500000000E-02 0.  1.
<mgrwt>
<rscale>  0 0.25567126E+01</rscale>
<asrwt>0</asrwt>
<pdfrwt beam="1">0</pdfrwt>
<pdfrwt beam="2">0</pdfrwt>
<totfact> 0.19739510E+12</totfact>
</mgrwt>
</event>
<event>
 4    1  0.3281603E+006  0.2310757E+01  0.7546771E-02  0.2798336E+00
         22   -1    0    0    0    0  0.00000000000E+00  0.00000000000E+00  0.89991063761E+01  0.89991063761E+01  0.00000000000E+00 0. -1.
         22   -1    0    0    0    0 -0.00000000000E+00 -0.00000000000E+00 -0.60163141227E+00  0.60163141227E+00  0.00000000000E+00 0.  1.
          2    1    1    2  501    0 -0.12972471329E+01  0.19122609731E+01  0.36354591159E+01  0.43076863441E+01  0.25500000000E-02 0.  1.
         -2    1    1    2    0  501  0.12972471329E+01 -0.19122609731E+01  0.47620158479E+01  0.52930514442E+01  0.25500000000E-02 0. -1.
<mgrwt>
<rscale>  0 0.23107572E+01</rscale>
<asrwt>0</asrwt>
<pdfrwt beam="1">0</pdfrwt>
<pdfrwt beam="2">0</pdfrwt>
<totfact> 0.32120472E+12</totfact>
</mgrwt>
</event>
<event>
 4    1  0.3281603E+006  0.2117827E+01  0.7546771E-02  0.2905493E+00
         22   -1    0    0    0    0  0.00000000000E+00  0.00000000000E+00  0.16665679425E+02  0.16665679425E+02  0.00000000000E+00 0.  1.
         22   -1    0    0    0    0 -0.00000000000E+00 -0.00000000000E+00 -0.27172089755E+00  0.27172089755E+00  0.00000000000E+00 0. -1.
          2    1    1    2  501    0 -0.34258923889E+00  0.20899322147E+01  0.73696082980E+01  0.76678756521E+01  0.25500000000E-02 0.  1.
         -2    1    1    2    0  501  0.34258923889E+00 -0.20899322147E+01  0.90243502297E+01  0.92695246707E+01  0.25500000000E-02 0. -1.
<mgrwt>
<rscale>  0 0.21178268E+01</rscale>
<asrwt>0</asrwt>
<pdfrwt beam="1">0</pdfrwt>
<pdfrwt beam="2">0</pdfrwt>
<totfact> 0.37047233E+12</totfact>
</mgrwt>
</event>
<event>
 4    1  0.3281603E+006  0.2589115E+01  0.7546771E-02  0.2670500E+00
         22   -1    0    0    0    0  0.00000000000E+00  0.00000000000E+00  0.14948157002E+02  0.14948157002E+02  0.00000000000E+00 0. -1.
         22   -1    0    0    0    0 -0.00000000000E+00 -0.00000000000E+00 -0.81122630630E+00  0.81122630630E+00  0.00000000000E+00 0.  1.
          2    1    1    2  501    0 -0.23010195760E+01  0.11869362611E+01  0.12337815955E+02  0.12606554558E+02  0.25500000000E-02 0. -1.
         -2    1    1    2    0  501  0.23010195760E+01 -0.11869362611E+01  0.17991147407E+01  0.31528287505E+01  0.25500000000E-02 0.  1.
<mgrwt>
<rscale>  0 0.25891148E+01</rscale>
<asrwt>0</asrwt>
<pdfrwt beam="1">0</pdfrwt>
<pdfrwt beam="2">0</pdfrwt>
<totfact> 0.12331851E+12</totfact>
</mgrwt>
</event>
<event>
 4    1  0.3281603E+006  0.3020318E+01  0.7546771E-02  0.2515798E+00
         22   -1    0    0    0    0  0.00000000000E+00  0.00000000000E+00  0.29859898165E+00  0.29859898165E+00  0.00000000000E+00 0.  1.
         22   -1    0    0    0    0 -0.00000000000E+00 -0.00000000000E+00 -0.30950633292E+02  0.30950633292E+02  0.00000000000E+00 0. -1.
          2    1    1    2  501    0  0.26375916518E+01 -0.14715381805E+01 -0.13549265910E+02  0.13881820037E+02  0.25500000000E-02 0. -1.
         -2    1    1    2    0  501 -0.26375916518E+01  0.14715381805E+01 -0.17102768400E+02  0.17367412237E+02  0.25500000000E-02 0.  1.
<mgrwt>
<rscale>  0 0.30203180E+01</rscale>
<asrwt>0</asrwt>
<pdfrwt beam="1">0</pdfrwt>
<pdfrwt beam="2">0</pdfrwt>
<totfact> 0.15323395E+12</totfact>
</mgrwt>
</event>
<event>
 4    1  0.3281603E+006  0.2527404E+01  0.7546771E-02  0.2696571E+00
         22   -1    0    0    0    0  0.00000000000E+00  0.00000000000E+00  0.56081371621E+00  0.56081371621E+00  0.00000000000E+00 0.  1.
         22   -1    0    0    0    0 -0.00000000000E+00 -0.00000000000E+00 -0.11394774570E+02  0.11394774570E+02  0.00000000000E+00 0. -1.
          2    1    1    2  501    0 -0.42025397434E+00  0.24922177345E+01 -0.55370169114E+01  0.60865692651E+01  0.25500000000E-02 0. -1.
         -2    1    1    2    0  501  0.42025397434E+00 -0.24922177345E+01 -0.52969439425E+01  0.58690190212E+01  0.25500000000E-02 0.  1.
<mgrwt>
<rscale>  0 0.25274036E+01</rscale>
<asrwt>0</asrwt>
<pdfrwt beam="1">0</pdfrwt>
<pdfrwt beam="2">0</pdfrwt>
<totfact> 0.26129930E+12</totfact>
</mgrwt>
</event>
<event>
 4    1  0.3281603E+006  0.2126073E+01  0.7546771E-02  0.2900531E+00
         22   -1    0    0    0    0  0.00000000000E+00  0.00000000000E+00  0.18921420277E+02  0.18921420277E+02  0.00000000000E+00 0. -1.
         22   -1    0    0    0    0 -0.00000000000E+00 -0.00000000000E+00 -0.45142821052E+00  0.45142821052E+00  0.00000000000E+00 0.  1.
          2    1    1    2  501    0 -0.16504168862E+01  0.13402625350E+01  0.15881374349E+02  0.16023053307E+02  0.25500000000E-02 0. -1.
         -2    1    1    2    0  501  0.16504168862E+01 -0.13402625350E+01  0.25886177167E+01  0.33497951799E+01  0.25500000000E-02 0.  1.
<mgrwt>
<rscale>  0 0.21260729E+01</rscale>
<asrwt>0</asrwt>
<pdfrwt beam="1">0</pdfrwt>
<pdfrwt beam="2">0</pdfrwt>
<totfact> 0.17892925E+12</totfact>
</mgrwt>
</event>
<event>
 4    1  0.3281603E+006  0.3610547E+01  0.7546771E-02  0.2358555E+00
         22   -1    0    0    0    0  0.00000000000E+00  0.00000000000E+00  0.83936273090E+01  0.83936273090E+01  0.00000000000E+00 0. -1.
         22   -1    0    0    0    0 -0.00000000000E+00 -0.00000000000E+00 -0.32442037215E+01  0.32442037215E+01  0.00000000000E+00 0.  1.
          2    1    1    2  501    0 -0.26391216879E+01  0.24639561431E+01  0.67759232071E+01  0.76778372586E+01  0.25500000000E-02 0. -1.
         -2    1    1    2    0  501  0.26391216879E+01 -0.24639561431E+01 -0.16264996196E+01  0.39599937719E+01  0.25500000000E-02 0.  1.
<mgrwt>
<rscale>  0 0.36105470E+01</rscale>
<asrwt>0</asrwt>
<pdfrwt beam="1">0</pdfrwt>
<pdfrwt beam="2">0</pdfrwt>
<totfact> 0.50330822E+11</totfact>
</mgrwt>
</event>
<event>
 4    1  0.3281603E+006  0.2722526E+01  0.7546771E-02  0.2617875E+00
         22   -1    0    0    0    0  0.00000000000E+00  0.00000000000E+00  0.35913177630E+01  0.35913177630E+01  0.00000000000E+00 0. -1.
         22   -1    0    0    0    0 -0.00000000000E+00 -0.00000000000E+00 -0.12028215126E+02  0.12028215126E+02  0.00000000000E+00 0.  1.
          2    1    1    2  501    0 -0.15018339732E+01  0.22708231906E+01  0.28897736565E+01  0.39702571119E+01  0.25500000000E-02 0. -1.
         -2    1    1    2    0  501  0.15018339732E+01 -0.22708231906E+01 -0.11326671020E+02  0.11649275778E+02  0.25500000000E-02 0.  1.
<mgrwt>
<rscale>  0 0.27225264E+01</rscale>
<asrwt>0</asrwt>
<pdfrwt beam="1">0</pdfrwt>
<pdfrwt beam="2">0</pdfrwt>
<totfact> 0.28896036E+11</totfact>
</mgrwt>
</event>
<event>
 4    1  0.3281603E+006  0.2013422E+01  0.7546771E-02  0.2971725E+00
         22   -1    0    0    0    0  0.00000000000E+00  0.00000000000E+00  0.75818853409E+01  0.75818853409E+01  0.00000000000E+00 0. -1.
         22   -1    0    0    0    0 -0.00000000000E+00 -0.00000000000E+00 -0.10735849491E+01  0.10735849491E+01  0.00000000000E+00 0.  1.
          2    1    1    2  501    0 -0.18237130106E+01 -0.85318999956E+00  0.63203417115E+01  0.66332939158E+01  0.25500000000E-02 0. -1.
         -2    1    1    2    0  501  0.18237130106E+01  0.85318999956E+00  0.18795868022E+00  0.20221763742E+01  0.25500000000E-02 0.  1.
<mgrwt>
<rscale>  0 0.20134222E+01</rscale>
<asrwt>0</asrwt>
<pdfrwt beam="1">0</pdfrwt>
<pdfrwt beam="2">0</pdfrwt>
<totfact> 0.20422445E+12</totfact>
</mgrwt>
</event>
<event>
 4    1  0.3281603E+006  0.2943098E+01  0.7546771E-02  0.2540473E+00
         22   -1    0    0    0    0  0.00000000000E+00  0.00000000000E+00  0.26575985673E+00  0.26575985673E+00  0.00000000000E+00 0. -1.
         22   -1    0    0    0    0 -0.00000000000E+00 -0.00000000000E+00 -0.48895606920E+02  0.48895606920E+02  0.00000000000E+00 0.  1.
          2    1    1    2  501    0 -0.20264339196E+01  0.21343342728E+01 -0.10121343995E+02  0.10540561085E+02  0.25500000000E-02 0. -1.
         -2    1    1    2    0  501  0.20264339196E+01 -0.21343342728E+01 -0.38508503068E+02  0.38620805692E+02  0.25500000000E-02 0.  1.
<mgrwt>
<rscale>  0 0.29430976E+01</rscale>
<asrwt>0</asrwt>
<pdfrwt beam="1">0</pdfrwt>
<pdfrwt beam="2">0</pdfrwt>
<totfact> 0.96535893E+11</totfact>
</mgrwt>
</event>
<event>
 4    1  0.3281603E+006  0.3980204E+01  0.7546771E-02  0.2281095E+00
         22   -1    0    0    0    0  0.00000000000E+00  0.00000000000E+00  0.16555885339E+02  0.16555885339E+02  0.00000000000E+00 0.  1.
         22   -1    0    0    0    0 -0.00000000000E+00 -0.00000000000E+00 -0.10476579594E+01  0.10476579594E+01  0.00000000000E+00 0. -1.
          2    1    1    2  501    0  0.13258376266E+01 -0.37528885093E+01  0.10344988489E+02  0.11084259601E+02  0.25500000000E-02 0.  1.
         -2    1    1    2    0  501 -0.13258376266E+01  0.37528885093E+01  0.51632388904E+01  0.65192836967E+01  0.25500000000E-02 0. -1.
<mgrwt>
<rscale>  0 0.39802040E+01</rscale>
<asrwt>0</asrwt>
<pdfrwt beam="1">0</pdfrwt>
<pdfrwt beam="2">0</pdfrwt>
<totfact> 0.81219733E+11</totfact>
</mgrwt>
</event>
<event>
 4    1  0.3281603E+006  0.3106092E+01  0.7546771E-02  0.2489681E+00
         22   -1    0    0    0    0  0.00000000000E+00  0.00000000000E+00  0.37366664389E+00  0.37366664389E+00  0.00000000000E+00 0. -1.
         22   -1    0    0    0    0 -0.00000000000E+00 -0.00000000000E+00 -0.85020602332E+02  0.85020602332E+02  0.00000000000E+00 0.  1.
          2    1    1    2  501    0  0.10299104700E+01  0.29303731064E+01 -0.66945775354E+01  0.73800526420E+01  0.25500000000E-02 0. -1.
         -2    1    1    2    0  501 -0.10299104700E+01 -0.29303731064E+01 -0.77952358153E+02  0.78014216334E+02  0.25500000000E-02 0.  1.
<mgrwt>
<rscale>  0 0.31060922E+01</rscale>
<asrwt>0</asrwt>
<pdfrwt beam="1">0</pdfrwt>
<pdfrwt beam="2">0</pdfrwt>
<totfact> 0.31248903E+11</totfact>
</mgrwt>
</event>
<event>
 4    1  0.3281603E+006  0.4764640E+01  0.7546771E-02  0.2152191E+00
         22   -1    0    0    0    0  0.00000000000E+00  0.00000000000E+00  0.57980491016E+01  0.57980491016E+01  0.00000000000E+00 0. -1.
         22   -1    0    0    0    0 -0.00000000000E+00 -0.00000000000E+00 -0.87314848903E+01  0.87314848903E+01  0.00000000000E+00 0.  1.
          2    1    1    2  501    0  0.36319824491E+01 -0.30839086837E+01  0.39286841712E+01  0.61754639582E+01  0.25500000000E-02 0. -1.
         -2    1    1    2    0  501 -0.36319824491E+01  0.30839086837E+01 -0.68621199599E+01  0.83540700336E+01  0.25500000000E-02 0.  1.
<mgrwt>
<rscale>  0 0.47646402E+01</rscale>
<asrwt>0</asrwt>
<pdfrwt beam="1">0</pdfrwt>
<pdfrwt beam="2">0</pdfrwt>
<totfact> 0.24197246E+11</totfact>
</mgrwt>
</event>
<event>
 4    1  0.3281603E+006  0.2444760E+01  0.7546771E-02  0.2733396E+00
         22   -1    0    0    0    0  0.00000000000E+00  0.00000000000E+00  0.91646708212E+01  0.91646708212E+01  0.00000000000E+00 0.  1.
         22   -1    0    0    0    0 -0.00000000000E+00 -0.00000000000E+00 -0.22008911596E+01  0.22008911596E+01  0.00000000000E+00 0. -1.
          2    1    1    2  501    0  0.22709116202E+01  0.90542987133E+00  0.82489362905E+01  0.86035922304E+01  0.25500000000E-02 0.  1.
         -2    1    1    2    0  501 -0.22709116202E+01 -0.90542987133E+00 -0.12851566290E+01  0.27619697504E+01  0.25500000000E-02 0. -1.
<mgrwt>
<rscale>  0 0.24447596E+01</rscale>
<asrwt>0</asrwt>
<pdfrwt beam="1">0</pdfrwt>
<pdfrwt beam="2">0</pdfrwt>
<totfact> 0.71144026E+11</totfact>
</mgrwt>
</event>
<event>
 4    1  0.3281603E+006  0.2031527E+01  0.7546771E-02  0.2959763E+00
         22   -1    0    0    0    0  0.00000000000E+00  0.00000000000E+00  0.20540307348E+02  0.20540307348E+02  0.00000000000E+00 0.  1.
         22   -1    0    0    0    0 -0.00000000000E+00 -0.00000000000E+00 -0.20092803086E+00  0.20092803086E+00  0.00000000000E+00 0. -1.
          2    1    1    2  501    0  0.18519517312E+01 -0.83508801944E+00  0.10146979758E+02  0.10348347787E+02  0.25500000000E-02 0.  1.
         -2    1    1    2    0  501 -0.18519517312E+01  0.83508801944E+00  0.10192399559E+02  0.10392887592E+02  0.25500000000E-02 0. -1.
<mgrwt>
<rscale>  0 0.20315274E+01</rscale>
<asrwt>0</asrwt>
<pdfrwt beam="1">0</pdfrwt>
<pdfrwt beam="2">0</pdfrwt>
<totfact> 0.40037169E+12</totfact>
</mgrwt>
</event>
<event>
 4    1  0.3281603E+006  0.2311726E+01  0.7546771E-02  0.2797841E+00
         22   -1    0    0    0    0  0.00000000000E+00  0.00000000000E+00  0.67957022071E+00  0.67957022071E+00  0.00000000000E+00 0.  1.
         22   -1    0    0    0    0 -0.00000000000E+00 -0.00000000000E+00 -0.39397731938E+02  0.39397731938E+02  0.00000000000E+00 0. -1.
          2    1    1    2  501    0  0.22049244393E+01  0.69453591200E+00 -0.14315208578E+01  0.27190679257E+01  0.25500000000E-02 0.  1.
         -2    1    1    2    0  501 -0.22049244393E+01 -0.69453591200E+00 -0.37286640860E+02  0.37358234233E+02  0.25500000000E-02 0. -1.
<mgrwt>
<rscale>  0 0.23117263E+01</rscale>
<asrwt>0</asrwt>
<pdfrwt beam="1">0</pdfrwt>
<pdfrwt beam="2">0</pdfrwt>
<totfact> 0.44440930E+11</totfact>
</mgrwt>
</event>
<event>
 4    1  0.3281603E+006  0.5756352E+01  0.7546771E-02  0.2042253E+00
         22   -1    0    0    0    0  0.00000000000E+00  0.00000000000E+00  0.25414713529E+01  0.25414713529E+01  0.00000000000E+00 0.  1.
         22   -1    0    0    0    0 -0.00000000000E+00 -0.00000000000E+00 -0.13068975440E+02  0.13068975440E+02  0.00000000000E+00 0. -1.
          2    1    1    2  501    0  0.48118881688E+01  0.31593211075E+01 -0.56440310693E+01  0.80616791565E+01  0.25500000000E-02 0.  1.
         -2    1    1    2    0  501 -0.48118881688E+01 -0.31593211075E+01 -0.48834730178E+01  0.75487676363E+01  0.25500000000E-02 0. -1.
<mgrwt>
<rscale>  0 0.57563516E+01</rscale>
<asrwt>0</asrwt>
<pdfrwt beam="1">0</pdfrwt>
<pdfrwt beam="2">0</pdfrwt>
<totfact> 0.39109906E+11</totfact>
</mgrwt>
</event>
<event>
 4    1  0.3281603E+006  0.2188969E+01  0.7546771E-02  0.2863873E+00
         22   -1    0    0    0    0  0.00000000000E+00  0.00000000000E+00  0.56607105193E+00  0.56607105193E+00  0.00000000000E+00 0. -1.
         22   -1    0    0    0    0 -0.00000000000E+00 -0.00000000000E+00 -0.16858822791E+02  0.16858822791E+02  0.00000000000E+00 0.  1.
          2    1    1    2  501    0 -0.21143523165E+01  0.56665185433E+00 -0.19986317242E+01  0.29641382076E+01  0.25500000000E-02 0. -1.
         -2    1    1    2    0  501  0.21143523165E+01 -0.56665185433E+00 -0.14294120015E+02  0.14460755635E+02  0.25500000000E-02 0.  1.
<mgrwt>
<rscale>  0 0.21889693E+01</rscale>
<asrwt>0</asrwt>
<pdfrwt beam="1">0</pdfrwt>
<pdfrwt beam="2">0</pdfrwt>
<totfact> 0.15990300E+12</totfact>
</mgrwt>
</event>
<event>
 4    1  0.3281603E+006  0.2413839E+01  0.7546771E-02  0.2747779E+00
         22   -1    0    0    0    0  0.00000000000E+00  0.00000000000E+00  0.15732584571E+01  0.15732584571E+01  0.00000000000E+00 0.  1.
         22   -1    0    0    0    0 -0.00000000000E+00 -0.00000000000E+00 -0.38306265890E+01  0.38306265890E+01  0.00000000000E+00 0. -1.
          2    1    1    2  501    0  0.12592292138E+01 -0.20593573165E+01 -0.63653107238E+00  0.24963551587E+01  0.25500000000E-02 0. -1.
         -2    1    1    2    0  501 -0.12592292138E+01  0.20593573165E+01 -0.16208370595E+01  0.29075298874E+01  0.25500000000E-02 0.  1.
<mgrwt>
<rscale>  0 0.24138387E+01</rscale>
<asrwt>0</asrwt>
<pdfrwt beam="1">0</pdfrwt>
<pdfrwt beam="2">0</pdfrwt>
<totfact> 0.29621556E+12</totfact>
</mgrwt>
</event>
<event>
 4    1  0.3281603E+006  0.2259626E+01  0.7546771E-02  0.2825030E+00
         22   -1    0    0    0    0  0.00000000000E+00  0.00000000000E+00  0.79090015313E+01  0.79090015313E+01  0.00000000000E+00 0. -1.
         22   -1    0    0    0    0 -0.00000000000E+00 -0.00000000000E+00 -0.65745058180E+00  0.65745058180E+00  0.00000000000E+00 0.  1.
          2    1    1    2  501    0  0.14423284834E+01  0.17394233097E+01  0.42012595973E+01  0.47703766739E+01  0.25500000000E-02 0. -1.
         -2    1    1    2    0  501 -0.14423284834E+01 -0.17394233097E+01  0.30502913522E+01  0.37960754392E+01  0.25500000000E-02 0.  1.
<mgrwt>
<rscale>  0 0.22596264E+01</rscale>
<asrwt>0</asrwt>
<pdfrwt beam="1">0</pdfrwt>
<pdfrwt beam="2">0</pdfrwt>
<totfact> 0.33932004E+12</totfact>
</mgrwt>
</event>
<event>
 4    1  0.3281603E+006  0.2699205E+01  0.7546771E-02  0.2626729E+00
         22   -1    0    0    0    0  0.00000000000E+00  0.00000000000E+00  0.23374716344E+01  0.23374716344E+01  0.00000000000E+00 0.  1.
         22   -1    0    0    0    0 -0.00000000000E+00 -0.00000000000E+00 -0.37244544976E+01  0.37244544976E+01  0.00000000000E+00 0. -1.
          2    1    1    2  501    0  0.15057915924E+01 -0.22401551122E+01  0.53065997826E+00  0.27508743631E+01  0.25500000000E-02 0.  1.
         -2    1    1    2    0  501 -0.15057915924E+01  0.22401551122E+01 -0.19176428415E+01  0.33110517689E+01  0.25500000000E-02 0. -1.
<mgrwt>
<rscale>  0 0.26992054E+01</rscale>
<asrwt>0</asrwt>
<pdfrwt beam="1">0</pdfrwt>
<pdfrwt beam="2">0</pdfrwt>
<totfact> 0.19369083E+12</totfact>
</mgrwt>
</event>
<event>
 4    1  0.3281603E+006  0.2673664E+01  0.7546771E-02  0.2636589E+00
         22   -1    0    0    0    0  0.00000000000E+00  0.00000000000E+00  0.24731475628E+01  0.24731475628E+01  0.00000000000E+00 0. -1.
         22   -1    0    0    0    0 -0.00000000000E+00 -0.00000000000E+00 -0.29512133015E+01  0.29512133015E+01  0.00000000000E+00 0.  1.
          2    1    1    2  501    0  0.74995213798E+00  0.25663293124E+01 -0.62823944491E+00  0.27464824142E+01  0.25500000000E-02 0.  1.
         -2    1    1    2    0  501 -0.74995213798E+00 -0.25663293124E+01  0.15017370625E+00  0.26778784501E+01  0.25500000000E-02 0. -1.
<mgrwt>
<rscale>  0 0.26736643E+01</rscale>
<asrwt>0</asrwt>
<pdfrwt beam="1">0</pdfrwt>
<pdfrwt beam="2">0</pdfrwt>
<totfact> 0.23822327E+12</totfact>
</mgrwt>
</event>
<event>
 4    1  0.3281603E+006  0.2801042E+01  0.7546771E-02  0.2589055E+00
         22   -1    0    0    0    0  0.00000000000E+00  0.00000000000E+00  0.21647992322E+01  0.21647992322E+01  0.00000000000E+00 0. -1.
         22   -1    0    0    0    0 -0.00000000000E+00 -0.00000000000E+00 -0.11523871514E+02  0.11523871514E+02  0.00000000000E+00 0.  1.
          2    1    1    2  501    0 -0.27512777113E+01 -0.52564393824E+00  0.98721856614E+00  0.29699221529E+01  0.25500000000E-02 0. -1.
         -2    1    1    2    0  501  0.27512777113E+01  0.52564393824E+00 -0.10346290848E+02  0.10718748593E+02  0.25500000000E-02 0.  1.
<mgrwt>
<rscale>  0 0.28010421E+01</rscale>
<asrwt>0</asrwt>
<pdfrwt beam="1">0</pdfrwt>
<pdfrwt beam="2">0</pdfrwt>
<totfact> 0.54939923E+11</totfact>
</mgrwt>
</event>
<event>
 4    1  0.3281603E+006  0.2171015E+01  0.7546771E-02  0.2874129E+00
         22   -1    0    0    0    0  0.00000000000E+00  0.00000000000E+00  0.40288487496E+01  0.40288487496E+01  0.00000000000E+00 0. -1.
         22   -1    0    0    0    0 -0.00000000000E+00 -0.00000000000E+00 -0.11735677160E+01  0.11735677160E+01  0.00000000000E+00 0.  1.
          2    1    1    2  501    0 -0.18263919756E+01  0.11737089713E+01  0.15732714274E+01  0.26811359318E+01  0.25500000000E-02 0. -1.
         -2    1    1    2    0  501  0.18263919756E+01 -0.11737089713E+01  0.12820096061E+01  0.25212805338E+01  0.25500000000E-02 0.  1.
<mgrwt>
<rscale>  0 0.21710152E+01</rscale>
<asrwt>0</asrwt>
<pdfrwt beam="1">0</pdfrwt>
<pdfrwt beam="2">0</pdfrwt>
<totfact> 0.39084824E+12</totfact>
</mgrwt>
</event>
<event>
 4    1  0.3281603E+006  0.3409463E+01  0.7546771E-02  0.2406736E+00
         22   -1    0    0    0    0  0.00000000000E+00  0.00000000000E+00  0.21389567836E+02  0.21389567836E+02  0.00000000000E+00 0. -1.
         22   -1    0    0    0    0 -0.00000000000E+00 -0.00000000000E+00 -0.10407059166E+01  0.10407059166E+01  0.00000000000E+00 0.  1.
          2    1    1    2  501    0 -0.26174434600E+01  0.21848152907E+01  0.17926630671E+02  0.18247973089E+02  0.25500000000E-02 0. -1.
         -2    1    1    2    0  501  0.26174434600E+01 -0.21848152907E+01  0.24222312481E+01  0.41823006638E+01  0.25500000000E-02 0.  1.
<mgrwt>
<rscale>  0 0.34094625E+01</rscale>
<asrwt>0</asrwt>
<pdfrwt beam="1">0</pdfrwt>
<pdfrwt beam="2">0</pdfrwt>
<totfact> 0.59516497E+11</totfact>
</mgrwt>
</event>
<event>
 4    1  0.3281603E+006  0.3386456E+01  0.7546771E-02  0.2412566E+00
         22   -1    0    0    0    0  0.00000000000E+00  0.00000000000E+00  0.12899409318E+01  0.12899409318E+01  0.00000000000E+00 0. -1.
         22   -1    0    0    0    0 -0.00000000000E+00 -0.00000000000E+00 -0.32367750970E+02  0.32367750970E+02  0.00000000000E+00 0.  1.
          2    1    1    2  501    0 -0.29237481309E+01 -0.17087352199E+01 -0.12063817271E+01  0.35949189920E+01  0.25500000000E-02 0. -1.
         -2    1    1    2    0  501  0.29237481309E+01  0.17087352199E+01 -0.29871428311E+02  0.30062772910E+02  0.25500000000E-02 0.  1.
<mgrwt>
<rscale>  0 0.33864562E+01</rscale>
<asrwt>0</asrwt>
<pdfrwt beam="1">0</pdfrwt>
<pdfrwt beam="2">0</pdfrwt>
<totfact> 0.27558818E+11</totfact>
</mgrwt>
</event>
<event>
 4    1  0.3281603E+006  0.2137591E+01  0.7546771E-02  0.2893662E+00
         22   -1    0    0    0    0  0.00000000000E+00  0.00000000000E+00  0.14287923649E+01  0.14287923649E+01  0.00000000000E+00 0.  1.
         22   -1    0    0    0    0 -0.00000000000E+00 -0.00000000000E+00 -0.11412399587E+02  0.11412399587E+02  0.00000000000E+00 0. -1.
          2    1    1    2  501    0 -0.21289565739E+01  0.19191587089E+00  0.45541077685E+00  0.21855647493E+01  0.25500000000E-02 0.  1.
         -2    1    1    2    0  501  0.21289565739E+01 -0.19191587089E+00 -0.10439017999E+02  0.10655627203E+02  0.25500000000E-02 0. -1.
<mgrwt>
<rscale>  0 0.21375908E+01</rscale>
<asrwt>0</asrwt>
<pdfrwt beam="1">0</pdfrwt>
<pdfrwt beam="2">0</pdfrwt>
<totfact> 0.89804843E+11</totfact>
</mgrwt>
</event>
<event>
 4    1  0.3281603E+006  0.2899035E+01  0.7546771E-02  0.2555082E+00
         22   -1    0    0    0    0  0.00000000000E+00  0.00000000000E+00  0.17670521224E+02  0.17670521224E+02  0.00000000000E+00 0. -1.
         22   -1    0    0    0    0 -0.00000000000E+00 -0.00000000000E+00 -0.51392274516E+00  0.51392274516E+00  0.00000000000E+00 0.  1.
          2    1    1    2  501    0 -0.20613373985E+01 -0.20384514103E+01  0.11060588294E+02  0.11434203773E+02  0.25500000000E-02 0. -1.
         -2    1    1    2    0  501  0.20613373985E+01  0.20384514103E+01  0.60960101849E+01  0.67502401957E+01  0.25500000000E-02 0.  1.
<mgrwt>
<rscale>  0 0.28990348E+01</rscale>
<asrwt>0</asrwt>
<pdfrwt beam="1">0</pdfrwt>
<pdfrwt beam="2">0</pdfrwt>
<totfact> 0.16828585E+12</totfact>
</mgrwt>
</event>
<event>
 4    1  0.3281603E+006  0.3037361E+01  0.7546771E-02  0.2510504E+00
         22   -1    0    0    0    0  0.00000000000E+00  0.00000000000E+00  0.45896672525E+00  0.45896672525E+00  0.00000000000E+00 0.  1.
         22   -1    0    0    0    0 -0.00000000000E+00 -0.00000000000E+00 -0.20523493896E+02  0.20523493896E+02  0.00000000000E+00 0. -1.
          2    1    1    2  501    0 -0.28001679178E+01 -0.11766953702E+01 -0.85264959669E+01  0.90513364946E+01  0.25500000000E-02 0.  1.
         -2    1    1    2    0  501  0.28001679178E+01  0.11766953702E+01 -0.11538031204E+02  0.11931124126E+02  0.25500000000E-02 0. -1.
<mgrwt>
<rscale>  0 0.30373605E+01</rscale>
<asrwt>0</asrwt>
<pdfrwt beam="1">0</pdfrwt>
<pdfrwt beam="2">0</pdfrwt>
<totfact> 0.15871711E+12</totfact>
</mgrwt>
</event>
<event>
 4    1  0.3281603E+006  0.3039769E+01  0.7546771E-02  0.2509760E+00
         22   -1    0    0    0    0  0.00000000000E+00  0.00000000000E+00  0.51176332280E+02  0.51176332280E+02  0.00000000000E+00 0. -1.
         22   -1    0    0    0    0 -0.00000000000E+00 -0.00000000000E+00 -0.10356511823E+01  0.10356511823E+01  0.00000000000E+00 0.  1.
          2    1    1    2  501    0  0.23138820974E+01 -0.19713290693E+01  0.48791759662E+02  0.48886358077E+02  0.25500000000E-02 0. -1.
         -2    1    1    2    0  501 -0.23138820974E+01  0.19713290693E+01  0.13489214361E+01  0.33256253853E+01  0.25500000000E-02 0.  1.
<mgrwt>
<rscale>  0 0.30397689E+01</rscale>
<asrwt>0</asrwt>
<pdfrwt beam="1">0</pdfrwt>
<pdfrwt beam="2">0</pdfrwt>
<totfact> 0.19535647E+11</totfact>
</mgrwt>
</event>
<event>
 4    1  0.3281603E+006  0.4228833E+01  0.7546771E-02  0.2235576E+00
         22   -1    0    0    0    0  0.00000000000E+00  0.00000000000E+00  0.15809338486E+02  0.15809338486E+02  0.00000000000E+00 0.  1.
         22   -1    0    0    0    0 -0.00000000000E+00 -0.00000000000E+00 -0.14593356068E+01  0.14593356068E+01  0.00000000000E+00 0. -1.
          2    1    1    2  501    0  0.13909430582E+01  0.39935320828E+01  0.11269482374E+02  0.12036787801E+02  0.25500000000E-02 0.  1.
         -2    1    1    2    0  501 -0.13909430582E+01 -0.39935320828E+01  0.30805205058E+01  0.52318862924E+01  0.25500000000E-02 0. -1.
<mgrwt>
<rscale>  0 0.42288329E+01</rscale>
<asrwt>0</asrwt>
<pdfrwt beam="1">0</pdfrwt>
<pdfrwt beam="2">0</pdfrwt>
<totfact> 0.58802550E+11</totfact>
</mgrwt>
</event>
<event>
 4    1  0.3281603E+006  0.2654191E+01  0.7546771E-02  0.2644223E+00
         22   -1    0    0    0    0  0.00000000000E+00  0.00000000000E+00  0.16534085547E+02  0.16534085547E+02  0.00000000000E+00 0.  1.
         22   -1    0    0    0    0 -0.00000000000E+00 -0.00000000000E+00 -0.53005864274E+00  0.53005864274E+00  0.00000000000E+00 0. -1.
          2    1    1    2  501    0  0.19546185372E+01 -0.17956026482E+01  0.11781032220E+02  0.12076317699E+02  0.25500000000E-02 0.  1.
         -2    1    1    2    0  501 -0.19546185372E+01  0.17956026482E+01  0.42229946845E+01  0.49878264910E+01  0.25500000000E-02 0. -1.
<mgrwt>
<rscale>  0 0.26541908E+01</rscale>
<asrwt>0</asrwt>
<pdfrwt beam="1">0</pdfrwt>
<pdfrwt beam="2">0</pdfrwt>
<totfact> 0.17644358E+12</totfact>
</mgrwt>
</event>
<event>
 4    1  0.3281603E+006  0.6385712E+01  0.7546771E-02  0.1986731E+00
         22   -1    0    0    0    0  0.00000000000E+00  0.00000000000E+00  0.39015607103E+02  0.39015607103E+02  0.00000000000E+00 0. -1.
         22   -1    0    0    0    0 -0.00000000000E+00 -0.00000000000E+00 -0.10465443859E+01  0.10465443859E+01  0.00000000000E+00 0.  1.
          2    1    1    2  501    0  0.26609403938E-01 -0.63856559043E+01  0.19714662496E+02  0.20723060421E+02  0.25500000000E-02 0.  1.
         -2    1    1    2    0  501 -0.26609403938E-01  0.63856559043E+01  0.18254400221E+02  0.19339091068E+02  0.25500000000E-02 0. -1.
<mgrwt>
<rscale>  0 0.63857119E+01</rscale>
<asrwt>0</asrwt>
<pdfrwt beam="1">0</pdfrwt>
<pdfrwt beam="2">0</pdfrwt>
<totfact> 0.27527952E+11</totfact>
</mgrwt>
</event>
<event>
 4    1  0.3281603E+006  0.2285297E+01  0.7546771E-02  0.2811487E+00
         22   -1    0    0    0    0  0.00000000000E+00  0.00000000000E+00  0.10864455335E+02  0.10864455335E+02  0.00000000000E+00 0.  1.
         22   -1    0    0    0    0 -0.00000000000E+00 -0.00000000000E+00 -0.52720096384E+00  0.52720096384E+00  0.00000000000E+00 0. -1.
          2    1    1    2  501    0  0.17969428970E+01  0.14119395022E+01  0.68601687307E+01  0.72308020612E+01  0.25500000000E-02 0.  1.
         -2    1    1    2    0  501 -0.17969428970E+01 -0.14119395022E+01  0.34770856406E+01  0.41608542378E+01  0.25500000000E-02 0. -1.
<mgrwt>
<rscale>  0 0.22852972E+01</rscale>
<asrwt>0</asrwt>
<pdfrwt beam="1">0</pdfrwt>
<pdfrwt beam="2">0</pdfrwt>
<totfact> 0.29692017E+12</totfact>
</mgrwt>
</event>
<event>
 4    1  0.3281603E+006  0.2234745E+01  0.7546771E-02  0.2838441E+00
         22   -1    0    0    0    0  0.00000000000E+00  0.00000000000E+00  0.18077441893E+02  0.18077441893E+02  0.00000000000E+00 0.  1.
         22   -1    0    0    0    0 -0.00000000000E+00 -0.00000000000E+00 -0.29863470908E+00  0.29863470908E+00  0.00000000000E+00 0. -1.
          2    1    1    2  501    0  0.22161488773E+01  0.28768910737E+00  0.11404323901E+02  0.11621217277E+02  0.25500000000E-02 0.  1.
         -2    1    1    2    0  501 -0.22161488773E+01 -0.28768910737E+00  0.63744832831E+01  0.67548593248E+01  0.25500000000E-02 0. -1.
<mgrwt>
<rscale>  0 0.22347455E+01</rscale>
<asrwt>0</asrwt>
<pdfrwt beam="1">0</pdfrwt>
<pdfrwt beam="2">0</pdfrwt>
<totfact> 0.30134708E+12</totfact>
</mgrwt>
</event>
<event>
 4    1  0.3281603E+006  0.2679609E+01  0.7546771E-02  0.2634279E+00
         22   -1    0    0    0    0  0.00000000000E+00  0.00000000000E+00  0.35969965499E+01  0.35969965499E+01  0.00000000000E+00 0. -1.
         22   -1    0    0    0    0 -0.00000000000E+00 -0.00000000000E+00 -0.20915288515E+01  0.20915288515E+01  0.00000000000E+00 0.  1.
          2    1    1    2  501    0  0.69017129749E+00 -0.25892008555E+01  0.13599774558E+01  0.30049696626E+01  0.25500000000E-02 0.  1.
         -2    1    1    2    0  501 -0.69017129749E+00  0.25892008555E+01  0.14549024249E+00  0.26835557388E+01  0.25500000000E-02 0. -1.
<mgrwt>
<rscale>  0 0.26796089E+01</rscale>
<asrwt>0</asrwt>
<pdfrwt beam="1">0</pdfrwt>
<pdfrwt beam="2">0</pdfrwt>
<totfact> 0.22954602E+12</totfact>
</mgrwt>
</event>
<event>
 4    1  0.3281603E+006  0.2500516E+01  0.7546771E-02  0.2708303E+00
         22   -1    0    0    0    0  0.00000000000E+00  0.00000000000E+00  0.69928498470E+01  0.69928498470E+01  0.00000000000E+00 0. -1.
         22   -1    0    0    0    0 -0.00000000000E+00 -0.00000000000E+00 -0.14862498960E+01  0.14862498960E+01  0.00000000000E+00 0.  1.
          2    1    1    2  501    0  0.16594742674E+01  0.18704859989E+01  0.54292338984E+01  0.59773873844E+01  0.25500000000E-02 0. -1.
         -2    1    1    2    0  501 -0.16594742674E+01 -0.18704859989E+01  0.77366052525E-01  0.25017123586E+01  0.25500000000E-02 0.  1.
<mgrwt>
<rscale>  0 0.25005158E+01</rscale>
<asrwt>0</asrwt>
<pdfrwt beam="1">0</pdfrwt>
<pdfrwt beam="2">0</pdfrwt>
<totfact> 0.15495833E+12</totfact>
</mgrwt>
</event>
<event>
 4    1  0.3281603E+006  0.2368252E+01  0.7546771E-02  0.2769626E+00
         22   -1    0    0    0    0  0.00000000000E+00  0.00000000000E+00  0.10088470862E+01  0.10088470862E+01  0.00000000000E+00 0.  1.
         22   -1    0    0    0    0 -0.00000000000E+00 -0.00000000000E+00 -0.20053957789E+02  0.20053957789E+02  0.00000000000E+00 0. -1.
          2    1    1    2  501    0  0.20538514732E+01 -0.11791114694E+01 -0.56915149817E+00  0.24356825864E+01  0.25500000000E-02 0.  1.
         -2    1    1    2    0  501 -0.20538514732E+01  0.11791114694E+01 -0.18475959204E+02  0.18627122288E+02  0.25500000000E-02 0. -1.
<mgrwt>
<rscale>  0 0.23682517E+01</rscale>
<asrwt>0</asrwt>
<pdfrwt beam="1">0</pdfrwt>
<pdfrwt beam="2">0</pdfrwt>
<totfact> 0.66837808E+11</totfact>
</mgrwt>
</event>
<event>
 4    1  0.3281603E+006  0.2027163E+01  0.7546771E-02  0.2962628E+00
         22   -1    0    0    0    0  0.00000000000E+00  0.00000000000E+00  0.53289562909E+00  0.53289562909E+00  0.00000000000E+00 0. -1.
         22   -1    0    0    0    0 -0.00000000000E+00 -0.00000000000E+00 -0.10281875183E+02  0.10281875183E+02  0.00000000000E+00 0.  1.
          2    1    1    2  501    0 -0.63412464297E+00 -0.19254270465E+01 -0.75781675589E+01  0.78446168439E+01  0.25500000000E-02 0. -1.
         -2    1    1    2    0  501  0.63412464297E+00  0.19254270465E+01 -0.21708119948E+01  0.29701539679E+01  0.25500000000E-02 0.  1.
<mgrwt>
<rscale>  0 0.20271630E+01</rscale>
<asrwt>0</asrwt>
<pdfrwt beam="1">0</pdfrwt>
<pdfrwt beam="2">0</pdfrwt>
<totfact> 0.31360397E+12</totfact>
</mgrwt>
</event>
<event>
 4    1  0.3281603E+006  0.2323352E+01  0.7546771E-02  0.2791932E+00
         22   -1    0    0    0    0  0.00000000000E+00  0.00000000000E+00  0.61989447437E+01  0.61989447437E+01  0.00000000000E+00 0. -1.
         22   -1    0    0    0    0 -0.00000000000E+00 -0.00000000000E+00 -0.16134027847E+01  0.16134027847E+01  0.00000000000E+00 0.  1.
          2    1    1    2  501    0 -0.15658876536E+01  0.17163776358E+01  0.49428702066E+01  0.54616781958E+01  0.25500000000E-02 0. -1.
         -2    1    1    2    0  501  0.15658876536E+01 -0.17163776358E+01 -0.35732824768E+00  0.23506693326E+01  0.25500000000E-02 0.  1.
<mgrwt>
<rscale>  0 0.23233516E+01</rscale>
<asrwt>0</asrwt>
<pdfrwt beam="1">0</pdfrwt>
<pdfrwt beam="2">0</pdfrwt>
<totfact> 0.16279469E+12</totfact>
</mgrwt>
</event>
<event>
 4    1  0.3281603E+006  0.2098193E+01  0.7546771E-02  0.2917458E+00
         22   -1    0    0    0    0  0.00000000000E+00  0.00000000000E+00  0.42438750206E+02  0.42438750206E+02  0.00000000000E+00 0. -1.
         22   -1    0    0    0    0 -0.00000000000E+00 -0.00000000000E+00 -0.17774618838E+00  0.17774618838E+00  0.00000000000E+00 0.  1.
          2    1    1    2  501    0 -0.16675749945E+01  0.12734216814E+01  0.34880229238E+02  0.34943279859E+02  0.25500000000E-02 0. -1.
         -2    1    1    2    0  501  0.16675749945E+01 -0.12734216814E+01  0.73807747796E+01  0.76732165348E+01  0.25500000000E-02 0.  1.
<mgrwt>
<rscale>  0 0.20981934E+01</rscale>
<asrwt>0</asrwt>
<pdfrwt beam="1">0</pdfrwt>
<pdfrwt beam="2">0</pdfrwt>
<totfact> 0.18208824E+12</totfact>
</mgrwt>
</event>
<event>
 4    1  0.3281603E+006  0.2669309E+01  0.7546771E-02  0.2638287E+00
         22   -1    0    0    0    0  0.00000000000E+00  0.00000000000E+00  0.29804131710E+00  0.29804131710E+00  0.00000000000E+00 0. -1.
         22   -1    0    0    0    0 -0.00000000000E+00 -0.00000000000E+00 -0.28663305329E+02  0.28663305329E+02  0.00000000000E+00 0.  1.
          2    1    1    2  501    0  0.18570253274E+01 -0.19174615691E+01 -0.82837393741E+01  0.87031917396E+01  0.25500000000E-02 0. -1.
         -2    1    1    2    0  501 -0.18570253274E+01  0.19174615691E+01 -0.20081524638E+02  0.20258154906E+02  0.25500000000E-02 0.  1.
<mgrwt>
<rscale>  0 0.26693086E+01</rscale>
<asrwt>0</asrwt>
<pdfrwt beam="1">0</pdfrwt>
<pdfrwt beam="2">0</pdfrwt>
<totfact> 0.16933042E+12</totfact>
</mgrwt>
</event>
<event>
 4    1  0.3281603E+006  0.2524954E+01  0.7546771E-02  0.2697630E+00
         22   -1    0    0    0    0  0.00000000000E+00  0.00000000000E+00  0.49618018248E+01  0.49618018248E+01  0.00000000000E+00 0.  1.
         22   -1    0    0    0    0 -0.00000000000E+00 -0.00000000000E+00 -0.15815300996E+01  0.15815300996E+01  0.00000000000E+00 0. -1.
          2    1    1    2  501    0 -0.79662080066E+00 -0.23959923113E+01  0.31070452694E+01  0.40036384283E+01  0.25500000000E-02 0.  1.
         -2    1    1    2    0  501  0.79662080066E+00  0.23959923113E+01  0.27322645572E+00  0.25396934961E+01  0.25500000000E-02 0. -1.
<mgrwt>
<rscale>  0 0.25249535E+01</rscale>
<asrwt>0</asrwt>
<pdfrwt beam="1">0</pdfrwt>
<pdfrwt beam="2">0</pdfrwt>
<totfact> 0.21699419E+12</totfact>
</mgrwt>
</event>
<event>
 4    1  0.3281603E+006  0.2255018E+01  0.7546771E-02  0.2827493E+00
         22   -1    0    0    0    0  0.00000000000E+00  0.00000000000E+00  0.15691350054E+00  0.15691350054E+00  0.00000000000E+00 0. -1.
         22   -1    0    0    0    0 -0.00000000000E+00 -0.00000000000E+00 -0.36566261878E+02  0.36566261878E+02  0.00000000000E+00 0.  1.
          2    1    1    2  501    0  0.19037610899E+01 -0.12086320640E+01 -0.24397306176E+02  0.24501299004E+02  0.25500000000E-02 0.  1.
         -2    1    1    2    0  501 -0.19037610899E+01  0.12086320640E+01 -0.12012042201E+02  0.12221876374E+02  0.25500000000E-02 0. -1.
<mgrwt>
<rscale>  0 0.22550176E+01</rscale>
<asrwt>0</asrwt>
<pdfrwt beam="1">0</pdfrwt>
<pdfrwt beam="2">0</pdfrwt>
<totfact> 0.25376513E+12</totfact>
</mgrwt>
</event>
<event>
 4    1  0.3281603E+006  0.2457612E+01  0.7546771E-02  0.2727518E+00
         22   -1    0    0    0    0  0.00000000000E+00  0.00000000000E+00  0.18673500776E+00  0.18673500776E+00  0.00000000000E+00 0.  1.
         22   -1    0    0    0    0 -0.00000000000E+00 -0.00000000000E+00 -0.81151104821E+02  0.81151104821E+02  0.00000000000E+00 0. -1.
          2    1    1    2  501    0  0.91863368865E+00  0.22794649988E+01 -0.89426990197E+01  0.92742504169E+01  0.25500000000E-02 0.  1.
         -2    1    1    2    0  501 -0.91863368865E+00 -0.22794649988E+01 -0.72021670794E+02  0.72063589412E+02  0.25500000000E-02 0. -1.
<mgrwt>
<rscale>  0 0.24576117E+01</rscale>
<asrwt>0</asrwt>
<pdfrwt beam="1">0</pdfrwt>
<pdfrwt beam="2">0</pdfrwt>
<totfact> 0.72439533E+11</totfact>
</mgrwt>
</event>
<event>
 4    1  0.3281603E+006  0.2731631E+01  0.7546771E-02  0.2614455E+00
         22   -1    0    0    0    0  0.00000000000E+00  0.00000000000E+00  0.18731534108E+02  0.18731534108E+02  0.00000000000E+00 0.  1.
         22   -1    0    0    0    0 -0.00000000000E+00 -0.00000000000E+00 -0.88243287934E+00  0.88243287934E+00  0.00000000000E+00 0. -1.
          2    1    1    2  501    0 -0.63370896377E+00 -0.26571061030E+01  0.16188153216E+02  0.16417006760E+02  0.25500000000E-02 0.  1.
         -2    1    1    2    0  501  0.63370896377E+00  0.26571061030E+01  0.16609480120E+01  0.31969602272E+01  0.25500000000E-02 0. -1.
<mgrwt>
<rscale>  0 0.27316307E+01</rscale>
<asrwt>0</asrwt>
<pdfrwt beam="1">0</pdfrwt>
<pdfrwt beam="2">0</pdfrwt>
<totfact> 0.84772192E+11</totfact>
</mgrwt>
</event>
<event>
 4    1  0.3281603E+006  0.2608923E+01  0.7546771E-02  0.2662374E+00
         22   -1    0    0    0    0  0.00000000000E+00  0.00000000000E+00  0.61774255980E+00  0.61774255980E+00  0.00000000000E+00 0. -1.
         22   -1    0    0    0    0 -0.00000000000E+00 -0.00000000000E+00 -0.11167462136E+02  0.11167462136E+02  0.00000000000E+00 0.  1.
          2    1    1    2  501    0 -0.37909402500E+00 -0.25812324189E+01 -0.59558538294E+01  0.65022053505E+01  0.25500000000E-02 0.  1.
         -2    1    1    2    0  501  0.37909402500E+00  0.25812324189E+01 -0.45938657464E+01  0.52829993449E+01  0.25500000000E-02 0. -1.
<mgrwt>
<rscale>  0 0.26089231E+01</rscale>
<asrwt>0</asrwt>
<pdfrwt beam="1">0</pdfrwt>
<pdfrwt beam="2">0</pdfrwt>
<totfact> 0.24002312E+12</totfact>
</mgrwt>
</event>
<event>
 4    1  0.3281603E+006  0.2162791E+01  0.7546771E-02  0.2878881E+00
         22   -1    0    0    0    0  0.00000000000E+00  0.00000000000E+00  0.25240453518E+02  0.25240453518E+02  0.00000000000E+00 0. -1.
         22   -1    0    0    0    0 -0.00000000000E+00 -0.00000000000E+00 -0.20959766319E+00  0.20959766319E+00  0.00000000000E+00 0.  1.
          2    1    1    2  501    0 -0.16686189008E+01  0.13759980128E+01  0.16845863647E+02  0.16984133421E+02  0.25500000000E-02 0. -1.
         -2    1    1    2    0  501  0.16686189008E+01 -0.13759980128E+01  0.81849922078E+01  0.84659177596E+01  0.25500000000E-02 0.  1.
<mgrwt>
<rscale>  0 0.21627913E+01</rscale>
<asrwt>0</asrwt>
<pdfrwt beam="1">0</pdfrwt>
<pdfrwt beam="2">0</pdfrwt>
<totfact> 0.29490366E+12</totfact>
</mgrwt>
</event>
<event>
 4    1  0.3281603E+006  0.2026050E+01  0.7546771E-02  0.2963360E+00
         22   -1    0    0    0    0  0.00000000000E+00  0.00000000000E+00  0.41435094408E+02  0.41435094408E+02  0.00000000000E+00 0. -1.
         22   -1    0    0    0    0 -0.00000000000E+00 -0.00000000000E+00 -0.16711924553E+00  0.16711924553E+00  0.00000000000E+00 0.  1.
          2    1    1    2  501    0 -0.94403808380E-01  0.20238474449E+01  0.33907699740E+02  0.33968175969E+02  0.25500000000E-02 0. -1.
         -2    1    1    2    0  501  0.94403808380E-01 -0.20238474449E+01  0.73602754233E+01  0.76340376845E+01  0.25500000000E-02 0.  1.
<mgrwt>
<rscale>  0 0.20260496E+01</rscale>
<asrwt>0</asrwt>
<pdfrwt beam="1">0</pdfrwt>
<pdfrwt beam="2">0</pdfrwt>
<totfact> 0.20119581E+12</totfact>
</mgrwt>
</event>
<event>
 4    1  0.3281603E+006  0.2000718E+01  0.7546771E-02  0.2980244E+00
         22   -1    0    0    0    0  0.00000000000E+00  0.00000000000E+00  0.15253046708E+02  0.15253046708E+02  0.00000000000E+00 0. -1.
         22   -1    0    0    0    0 -0.00000000000E+00 -0.00000000000E+00 -0.26872300151E+00  0.26872300151E+00  0.00000000000E+00 0.  1.
          2    1    1    2  501    0 -0.16034180838E+01 -0.11966274338E+01  0.63046142248E+01  0.66144564245E+01  0.25500000000E-02 0.  1.
         -2    1    1    2    0  501  0.16034180838E+01  0.11966274338E+01  0.86797094815E+01  0.89073132848E+01  0.25500000000E-02 0. -1.
<mgrwt>
<rscale>  0 0.20007182E+01</rscale>
<asrwt>0</asrwt>
<pdfrwt beam="1">0</pdfrwt>
<pdfrwt beam="2">0</pdfrwt>
<totfact> 0.41840571E+12</totfact>
</mgrwt>
</event>
<event>
 4    1  0.3281603E+006  0.4845065E+01  0.7546771E-02  0.2141964E+00
         22   -1    0    0    0    0  0.00000000000E+00  0.00000000000E+00  0.90636833535E+01  0.90636833535E+01  0.00000000000E+00 0. -1.
         22   -1    0    0    0    0 -0.00000000000E+00 -0.00000000000E+00 -0.49014012859E+01  0.49014012859E+01  0.00000000000E+00 0.  1.
          2    1    1    2  501    0  0.46969276661E+01 -0.11889134571E+01  0.68762017839E+01  0.84117062588E+01  0.25500000000E-02 0. -1.
         -2    1    1    2    0  501 -0.46969276661E+01  0.11889134571E+01 -0.27139197163E+01  0.55533783806E+01  0.25500000000E-02 0.  1.
<mgrwt>
<rscale>  0 0.48450646E+01</rscale>
<asrwt>0</asrwt>
<pdfrwt beam="1">0</pdfrwt>
<pdfrwt beam="2">0</pdfrwt>
<totfact> 0.28233155E+11</totfact>
</mgrwt>
</event>
<event>
 4    1  0.3281603E+006  0.2316367E+01  0.7546771E-02  0.2795476E+00
         22   -1    0    0    0    0  0.00000000000E+00  0.00000000000E+00  0.26519763291E+01  0.26519763291E+01  0.00000000000E+00 0.  1.
         22   -1    0    0    0    0 -0.00000000000E+00 -0.00000000000E+00 -0.25050589251E+01  0.25050589251E+01  0.00000000000E+00 0. -1.
          2    1    1    2  501    0 -0.16564620231E+01  0.16191609830E+01 -0.10573992305E+01  0.25463009166E+01  0.25500000000E-02 0. -1.
         -2    1    1    2    0  501  0.16564620231E+01 -0.16191609830E+01  0.12043166345E+01  0.26107343376E+01  0.25500000000E-02 0.  1.
<mgrwt>
<rscale>  0 0.23163668E+01</rscale>
<asrwt>0</asrwt>
<pdfrwt beam="1">0</pdfrwt>
<pdfrwt beam="2">0</pdfrwt>
<totfact> 0.26585527E+12</totfact>
</mgrwt>
</event>
<event>
 4    1  0.3281603E+006  0.4805904E+01  0.7546771E-02  0.2146910E+00
         22   -1    0    0    0    0  0.00000000000E+00  0.00000000000E+00  0.99140986048E+01  0.99140986048E+01  0.00000000000E+00 0.  1.
         22   -1    0    0    0    0 -0.00000000000E+00 -0.00000000000E+00 -0.17096658545E+02  0.17096658545E+02  0.00000000000E+00 0. -1.
          2    1    1    2  501    0  0.24454980686E+00  0.47996775229E+01  0.89602569779E+01  0.10167739205E+02  0.25500000000E-02 0.  1.
         -2    1    1    2    0  501 -0.24454980686E+00 -0.47996775229E+01 -0.16142816918E+02  0.16843017945E+02  0.25500000000E-02 0. -1.
<mgrwt>
<rscale>  0 0.48059042E+01</rscale>
<asrwt>0</asrwt>
<pdfrwt beam="1">0</pdfrwt>
<pdfrwt beam="2">0</pdfrwt>
<totfact> 0.55992489E+10</totfact>
</mgrwt>
</event>
<event>
 4    1  0.3281603E+006  0.2298112E+01  0.7546771E-02  0.2804833E+00
         22   -1    0    0    0    0  0.00000000000E+00  0.00000000000E+00  0.10854438833E+01  0.10854438833E+01  0.00000000000E+00 0. -1.
         22   -1    0    0    0    0 -0.00000000000E+00 -0.00000000000E+00 -0.42815450010E+02  0.42815450010E+02  0.00000000000E+00 0.  1.
          2    1    1    2  501    0 -0.22766925035E+01  0.31302178901E+00 -0.19939268367E+00  0.23067456168E+01  0.25500000000E-02 0. -1.
         -2    1    1    2    0  501  0.22766925035E+01 -0.31302178901E+00 -0.41530613443E+02  0.41594148276E+02  0.25500000000E-02 0.  1.
<mgrwt>
<rscale>  0 0.22981118E+01</rscale>
<asrwt>0</asrwt>
<pdfrwt beam="1">0</pdfrwt>
<pdfrwt beam="2">0</pdfrwt>
<totfact> 0.23397159E+11</totfact>
</mgrwt>
</event>
<event>
 4    1  0.3281603E+006  0.4257032E+01  0.7546771E-02  0.2230699E+00
         22   -1    0    0    0    0  0.00000000000E+00  0.00000000000E+00  0.15264127228E+02  0.15264127228E+02  0.00000000000E+00 0.  1.
         22   -1    0    0    0    0 -0.00000000000E+00 -0.00000000000E+00 -0.52641571394E+01  0.52641571394E+01  0.00000000000E+00 0. -1.
          2    1    1    2  501    0 -0.42526305148E+01 -0.19352145160E+00  0.14032811943E+02  0.14664314998E+02  0.25500000000E-02 0.  1.
         -2    1    1    2    0  501  0.42526305148E+01  0.19352145160E+00 -0.40328418537E+01  0.58639693696E+01  0.25500000000E-02 0. -1.
<mgrwt>
<rscale>  0 0.42570322E+01</rscale>
<asrwt>0</asrwt>
<pdfrwt beam="1">0</pdfrwt>
<pdfrwt beam="2">0</pdfrwt>
<totfact> 0.13746009E+11</totfact>
</mgrwt>
</event>
<event>
 4    1  0.3281603E+006  0.2119160E+01  0.7546771E-02  0.2904688E+00
         22   -1    0    0    0    0  0.00000000000E+00  0.00000000000E+00  0.36093223464E+01  0.36093223464E+01  0.00000000000E+00 0.  1.
         22   -1    0    0    0    0 -0.00000000000E+00 -0.00000000000E+00 -0.15232312272E+01  0.15232312272E+01  0.00000000000E+00 0. -1.
          2    1    1    2  501    0 -0.15897828548E+01 -0.14012215040E+01  0.21413464911E+01  0.30126736508E+01  0.25500000000E-02 0.  1.
         -2    1    1    2    0  501  0.15897828548E+01  0.14012215040E+01 -0.55255371855E-01  0.21198799228E+01  0.25500000000E-02 0. -1.
<mgrwt>
<rscale>  0 0.21191597E+01</rscale>
<asrwt>0</asrwt>
<pdfrwt beam="1">0</pdfrwt>
<pdfrwt beam="2">0</pdfrwt>
<totfact> 0.32968475E+12</totfact>
</mgrwt>
</event>
<event>
 4    1  0.3281603E+006  0.2815802E+01  0.7546771E-02  0.2583801E+00
         22   -1    0    0    0    0  0.00000000000E+00  0.00000000000E+00  0.42381040884E+02  0.42381040884E+02  0.00000000000E+00 0. -1.
         22   -1    0    0    0    0 -0.00000000000E+00 -0.00000000000E+00 -0.63664061292E+00  0.63664061292E+00  0.00000000000E+00 0.  1.
          2    1    1    2  501    0 -0.20383483052E+01 -0.19426448686E+01  0.38946558421E+02  0.39048215737E+02  0.25500000000E-02 0. -1.
         -2    1    1    2    0  501  0.20383483052E+01  0.19426448686E+01  0.27978418501E+01  0.39694657599E+01  0.25500000000E-02 0.  1.
<mgrwt>
<rscale>  0 0.28158017E+01</rscale>
<asrwt>0</asrwt>
<pdfrwt beam="1">0</pdfrwt>
<pdfrwt beam="2">0</pdfrwt>
<totfact> 0.43524986E+11</totfact>
</mgrwt>
</event>
<event>
 4    1  0.3281603E+006  0.2023671E+01  0.7546771E-02  0.2964928E+00
         22   -1    0    0    0    0  0.00000000000E+00  0.00000000000E+00  0.23023793637E+02  0.23023793637E+02  0.00000000000E+00 0. -1.
         22   -1    0    0    0    0 -0.00000000000E+00 -0.00000000000E+00 -0.44881822952E+00  0.44881822952E+00  0.00000000000E+00 0.  1.
          2    1    1    2  501    0  0.19124431424E+01  0.66166333171E+00  0.20406321192E+02  0.20506418220E+02  0.25500000000E-02 0. -1.
         -2    1    1    2    0  501 -0.19124431424E+01 -0.66166333171E+00  0.21686542155E+01  0.29661936461E+01  0.25500000000E-02 0.  1.
<mgrwt>
<rscale>  0 0.20236708E+01</rscale>
<asrwt>0</asrwt>
<pdfrwt beam="1">0</pdfrwt>
<pdfrwt beam="2">0</pdfrwt>
<totfact> 0.14093019E+12</totfact>
</mgrwt>
</event>
<event>
 4    1  0.3281603E+006  0.2219143E+01  0.7546771E-02  0.2846997E+00
         22   -1    0    0    0    0  0.00000000000E+00  0.00000000000E+00  0.13876544206E+01  0.13876544206E+01  0.00000000000E+00 0. -1.
         22   -1    0    0    0    0 -0.00000000000E+00 -0.00000000000E+00 -0.40577417692E+01  0.40577417692E+01  0.00000000000E+00 0.  1.
          2    1    1    2  501    0 -0.72053841428E+00  0.20989075244E+01 -0.37084925779E+00  0.22499164600E+01  0.25500000000E-02 0. -1.
         -2    1    1    2    0  501  0.72053841428E+00 -0.20989075244E+01 -0.22992380909E+01  0.31954797298E+01  0.25500000000E-02 0.  1.
<mgrwt>
<rscale>  0 0.22191428E+01</rscale>
<asrwt>0</asrwt>
<pdfrwt beam="1">0</pdfrwt>
<pdfrwt beam="2">0</pdfrwt>
<totfact> 0.31980424E+12</totfact>
</mgrwt>
</event>
<event>
 4    1  0.3281603E+006  0.2634894E+01  0.7546771E-02  0.2651890E+00
         22   -1    0    0    0    0  0.00000000000E+00  0.00000000000E+00  0.22249900819E+01  0.22249900819E+01  0.00000000000E+00 0.  1.
         22   -1    0    0    0    0 -0.00000000000E+00 -0.00000000000E+00 -0.66009771450E+01  0.66009771450E+01  0.00000000000E+00 0. -1.
          2    1    1    2  501    0 -0.15343281028E+01 -0.21420780981E+01  0.10164984903E+01  0.28241701417E+01  0.25500000000E-02 0.  1.
         -2    1    1    2    0  501  0.15343281028E+01  0.21420780981E+01 -0.53924855535E+01  0.60017970853E+01  0.25500000000E-02 0. -1.
<mgrwt>
<rscale>  0 0.26348943E+01</rscale>
<asrwt>0</asrwt>
<pdfrwt beam="1">0</pdfrwt>
<pdfrwt beam="2">0</pdfrwt>
<totfact> 0.10416448E+12</totfact>
</mgrwt>
</event>
<event>
 4    1  0.3281603E+006  0.3411727E+01  0.7546771E-02  0.2406166E+00
         22   -1    0    0    0    0  0.00000000000E+00  0.00000000000E+00  0.14694367235E+01  0.14694367235E+01  0.00000000000E+00 0.  1.
         22   -1    0    0    0    0 -0.00000000000E+00 -0.00000000000E+00 -0.10834669308E+02  0.10834669308E+02  0.00000000000E+00 0. -1.
          2    1    1    2  501    0  0.18214130868E+01 -0.28848448177E+01 -0.14924864929E+01  0.37238954992E+01  0.25500000000E-02 0.  1.
         -2    1    1    2    0  501 -0.18214130868E+01  0.28848448177E+01 -0.78727460920E+01  0.85802105328E+01  0.25500000000E-02 0. -1.
<mgrwt>
<rscale>  0 0.34117271E+01</rscale>
<asrwt>0</asrwt>
<pdfrwt beam="1">0</pdfrwt>
<pdfrwt beam="2">0</pdfrwt>
<totfact> 0.92631414E+11</totfact>
</mgrwt>
</event>
<event>
 4    1  0.3281603E+006  0.2214906E+01  0.7546771E-02  0.2849340E+00
         22   -1    0    0    0    0  0.00000000000E+00  0.00000000000E+00  0.15617114935E+01  0.15617114935E+01  0.00000000000E+00 0.  1.
         22   -1    0    0    0    0 -0.00000000000E+00 -0.00000000000E+00 -0.79509298728E+01  0.79509298728E+01  0.00000000000E+00 0. -1.
          2    1    1    2  501    0  0.21598350463E+01 -0.49083151798E+00  0.50467626349E+00  0.22716750735E+01  0.25500000000E-02 0. -1.
         -2    1    1    2    0  501 -0.21598350463E+01  0.49083151798E+00 -0.68938946427E+01  0.72409662928E+01  0.25500000000E-02 0.  1.
<mgrwt>
<rscale>  0 0.22149062E+01</rscale>
<asrwt>0</asrwt>
<pdfrwt beam="1">0</pdfrwt>
<pdfrwt beam="2">0</pdfrwt>
<totfact> 0.12548811E+12</totfact>
</mgrwt>
</event>
<event>
 4    1  0.3281603E+006  0.2461952E+01  0.7546771E-02  0.2725546E+00
         22   -1    0    0    0    0  0.00000000000E+00  0.00000000000E+00  0.20379284877E+02  0.20379284877E+02  0.00000000000E+00 0.  1.
         22   -1    0    0    0    0 -0.00000000000E+00 -0.00000000000E+00 -0.35227375258E+00  0.35227375258E+00  0.00000000000E+00 0. -1.
          2    1    1    2  501    0  0.15848413493E+01 -0.18840060601E+01  0.14103897127E+02  0.14317161786E+02  0.25500000000E-02 0.  1.
         -2    1    1    2    0  501 -0.15848413493E+01  0.18840060601E+01  0.59231139972E+01  0.64143968433E+01  0.25500000000E-02 0. -1.
<mgrwt>
<rscale>  0 0.24619520E+01</rscale>
<asrwt>0</asrwt>
<pdfrwt beam="1">0</pdfrwt>
<pdfrwt beam="2">0</pdfrwt>
<totfact> 0.21566526E+12</totfact>
</mgrwt>
</event>
<event>
 4    1  0.3281603E+006  0.2625092E+01  0.7546771E-02  0.2655824E+00
         22   -1    0    0    0    0  0.00000000000E+00  0.00000000000E+00  0.19941788454E+02  0.19941788454E+02  0.00000000000E+00 0.  1.
         22   -1    0    0    0    0 -0.00000000000E+00 -0.00000000000E+00 -0.38038652076E+00  0.38038652076E+00  0.00000000000E+00 0. -1.
          2    1    1    2  501    0  0.26096050753E+01  0.28471568210E+00  0.12855206289E+02  0.13120496824E+02  0.25500000000E-02 0.  1.
         -2    1    1    2    0  501 -0.26096050753E+01 -0.28471568210E+00  0.67061956442E+01  0.72016781509E+01  0.25500000000E-02 0. -1.
<mgrwt>
<rscale>  0 0.26250920E+01</rscale>
<asrwt>0</asrwt>
<pdfrwt beam="1">0</pdfrwt>
<pdfrwt beam="2">0</pdfrwt>
<totfact> 0.20326162E+12</totfact>
</mgrwt>
</event>
<event>
 4    1  0.3281603E+006  0.2318805E+01  0.7546771E-02  0.2794237E+00
         22   -1    0    0    0    0  0.00000000000E+00  0.00000000000E+00  0.58546783790E+01  0.58546783790E+01  0.00000000000E+00 0.  1.
         22   -1    0    0    0    0 -0.00000000000E+00 -0.00000000000E+00 -0.10124720590E+01  0.10124720590E+01  0.00000000000E+00 0. -1.
          2    1    1    2  501    0  0.90321272262E+00  0.21356629277E+01  0.34677910634E+01  0.41716220736E+01  0.25500000000E-02 0.  1.
         -2    1    1    2    0  501 -0.90321272262E+00 -0.21356629277E+01  0.13744152566E+01  0.26955283644E+01  0.25500000000E-02 0. -1.
<mgrwt>
<rscale>  0 0.23188048E+01</rscale>
<asrwt>0</asrwt>
<pdfrwt beam="1">0</pdfrwt>
<pdfrwt beam="2">0</pdfrwt>
<totfact> 0.29738431E+12</totfact>
</mgrwt>
</event>
<event>
 4    1  0.3281603E+006  0.4106004E+01  0.7546771E-02  0.2257478E+00
         22   -1    0    0    0    0  0.00000000000E+00  0.00000000000E+00  0.69602270026E+00  0.69602270026E+00  0.00000000000E+00 0. -1.
         22   -1    0    0    0    0 -0.00000000000E+00 -0.00000000000E+00 -0.26994535833E+02  0.26994535833E+02  0.00000000000E+00 0.  1.
          2    1    1    2  501    0  0.35930142988E+01  0.19873373560E+01 -0.87123613677E+01  0.96314333627E+01  0.25500000000E-02 0. -1.
         -2    1    1    2    0  501 -0.35930142988E+01 -0.19873373560E+01 -0.17586151765E+02  0.18059125171E+02  0.25500000000E-02 0.  1.
<mgrwt>
<rscale>  0 0.41060039E+01</rscale>
<asrwt>0</asrwt>
<pdfrwt beam="1">0</pdfrwt>
<pdfrwt beam="2">0</pdfrwt>
<totfact> 0.70204840E+11</totfact>
</mgrwt>
</event>
<event>
 4    1  0.3281603E+006  0.2196157E+01  0.7546771E-02  0.2859813E+00
         22   -1    0    0    0    0  0.00000000000E+00  0.00000000000E+00  0.81530460364E+00  0.81530460364E+00  0.00000000000E+00 0.  1.
         22   -1    0    0    0    0 -0.00000000000E+00 -0.00000000000E+00 -0.91274177876E+01  0.91274177876E+01  0.00000000000E+00 0. -1.
          2    1    1    2  501    0 -0.15323969351E+01 -0.15731680784E+01 -0.12070927865E+01  0.25060282655E+01  0.25500000000E-02 0.  1.
         -2    1    1    2    0  501  0.15323969351E+01  0.15731680784E+01 -0.71050203974E+01  0.74366941257E+01  0.25500000000E-02 0. -1.
<mgrwt>
<rscale>  0 0.21961568E+01</rscale>
<asrwt>0</asrwt>
<pdfrwt beam="1">0</pdfrwt>
<pdfrwt beam="2">0</pdfrwt>
<totfact> 0.22362836E+12</totfact>
</mgrwt>
</event>
<event>
 4    1  0.3281603E+006  0.2142406E+01  0.7546771E-02  0.2890812E+00
         22   -1    0    0    0    0  0.00000000000E+00  0.00000000000E+00  0.49214758307E+01  0.49214758307E+01  0.00000000000E+00 0. -1.
         22   -1    0    0    0    0 -0.00000000000E+00 -0.00000000000E+00 -0.57676727625E+01  0.57676727625E+01  0.00000000000E+00 0.  1.
          2    1    1    2  501    0 -0.13848968462E+01 -0.16346122971E+01  0.44703282625E+01  0.49571905263E+01  0.25500000000E-02 0. -1.
         -2    1    1    2    0  501  0.13848968462E+01  0.16346122971E+01 -0.53165251943E+01  0.57319580669E+01  0.25500000000E-02 0.  1.
<mgrwt>
<rscale>  0 0.21424059E+01</rscale>
<asrwt>0</asrwt>
<pdfrwt beam="1">0</pdfrwt>
<pdfrwt beam="2">0</pdfrwt>
<totfact> 0.48272439E+11</totfact>
</mgrwt>
</event>
<event>
 4    1  0.3281603E+006  0.2059370E+01  0.7546771E-02  0.2941770E+00
         22   -1    0    0    0    0  0.00000000000E+00  0.00000000000E+00  0.77438735279E+00  0.77438735279E+00  0.00000000000E+00 0. -1.
         22   -1    0    0    0    0 -0.00000000000E+00 -0.00000000000E+00 -0.66861281659E+01  0.66861281659E+01  0.00000000000E+00 0.  1.
          2    1    1    2  501    0 -0.96877165781E+00 -0.18172728559E+01 -0.13692960118E+01  0.24730501872E+01  0.25500000000E-02 0. -1.
         -2    1    1    2    0  501  0.96877165781E+00  0.18172728559E+01 -0.45424448013E+01  0.49874653316E+01  0.25500000000E-02 0.  1.
<mgrwt>
<rscale>  0 0.20593702E+01</rscale>
<asrwt>0</asrwt>
<pdfrwt beam="1">0</pdfrwt>
<pdfrwt beam="2">0</pdfrwt>
<totfact> 0.34452983E+12</totfact>
</mgrwt>
</event>
<event>
 4    1  0.3281603E+006  0.2192395E+01  0.7546771E-02  0.2861935E+00
         22   -1    0    0    0    0  0.00000000000E+00  0.00000000000E+00  0.84165740350E+00  0.84165740350E+00  0.00000000000E+00 0. -1.
         22   -1    0    0    0    0 -0.00000000000E+00 -0.00000000000E+00 -0.65592808793E+01  0.65592808793E+01  0.00000000000E+00 0.  1.
          2    1    1    2  501    0  0.27810528699E+00 -0.21746828088E+01 -0.15279519991E+01  0.26723083063E+01  0.25500000000E-02 0. -1.
         -2    1    1    2    0  501 -0.27810528699E+00  0.21746828088E+01 -0.41896714767E+01  0.47286299765E+01  0.25500000000E-02 0.  1.
<mgrwt>
<rscale>  0 0.21923947E+01</rscale>
<asrwt>0</asrwt>
<pdfrwt beam="1">0</pdfrwt>
<pdfrwt beam="2">0</pdfrwt>
<totfact> 0.32063654E+12</totfact>
</mgrwt>
</event>
<event>
 4    1  0.3281603E+006  0.2728245E+01  0.7546771E-02  0.2615724E+00
         22   -1    0    0    0    0  0.00000000000E+00  0.00000000000E+00  0.59527978058E+00  0.59527978058E+00  0.00000000000E+00 0.  1.
         22   -1    0    0    0    0 -0.00000000000E+00 -0.00000000000E+00 -0.14262614976E+02  0.14262614976E+02  0.00000000000E+00 0. -1.
          2    1    1    2  501    0 -0.21308152027E+01 -0.17038022377E+01 -0.42249637370E+01  0.50292783354E+01  0.25500000000E-02 0.  1.
         -2    1    1    2    0  501  0.21308152027E+01  0.17038022377E+01 -0.94423714581E+01  0.98286164209E+01  0.25500000000E-02 0. -1.
<mgrwt>
<rscale>  0 0.27282452E+01</rscale>
<asrwt>0</asrwt>
<pdfrwt beam="1">0</pdfrwt>
<pdfrwt beam="2">0</pdfrwt>
<totfact> 0.18563546E+12</totfact>
</mgrwt>
</event>
<event>
 4    1  0.3281603E+006  0.2734195E+01  0.7546771E-02  0.2613496E+00
         22   -1    0    0    0    0  0.00000000000E+00  0.00000000000E+00  0.34706732733E+01  0.34706732733E+01  0.00000000000E+00 0.  1.
         22   -1    0    0    0    0 -0.00000000000E+00 -0.00000000000E+00 -0.59769815279E+01  0.59769815279E+01  0.00000000000E+00 0. -1.
          2    1    1    2  501    0 -0.74545814017E+00  0.26306102793E+01  0.25247788854E+01  0.37216035795E+01  0.25500000000E-02 0. -1.
         -2    1    1    2    0  501  0.74545814017E+00 -0.26306102793E+01 -0.50310871401E+01  0.57260512217E+01  0.25500000000E-02 0.  1.
<mgrwt>
<rscale>  0 0.27341955E+01</rscale>
<asrwt>0</asrwt>
<pdfrwt beam="1">0</pdfrwt>
<pdfrwt beam="2">0</pdfrwt>
<totfact> 0.69818221E+11</totfact>
</mgrwt>
</event>
<event>
 4    1  0.3281603E+006  0.2316826E+01  0.7546771E-02  0.2795243E+00
         22   -1    0    0    0    0  0.00000000000E+00  0.00000000000E+00  0.48164268665E+01  0.48164268665E+01  0.00000000000E+00 0. -1.
         22   -1    0    0    0    0 -0.00000000000E+00 -0.00000000000E+00 -0.31090822947E+01  0.31090822947E+01  0.00000000000E+00 0.  1.
          2    1    1    2  501    0 -0.92465372548E-01 -0.23149781984E+01  0.40277107560E+01  0.46465185183E+01  0.25500000000E-02 0. -1.
         -2    1    1    2    0  501  0.92465372548E-01  0.23149781984E+01 -0.23203661843E+01  0.32789906429E+01  0.25500000000E-02 0.  1.
<mgrwt>
<rscale>  0 0.23168255E+01</rscale>
<asrwt>0</asrwt>
<pdfrwt beam="1">0</pdfrwt>
<pdfrwt beam="2">0</pdfrwt>
<totfact> 0.10259685E+12</totfact>
</mgrwt>
</event>
<event>
 4    1  0.3281603E+006  0.8080756E+01  0.7546771E-02  0.1871649E+00
         22   -1    0    0    0    0  0.00000000000E+00  0.00000000000E+00  0.75150166155E+01  0.75150166155E+01  0.00000000000E+00 0.  1.
         22   -1    0    0    0    0 -0.00000000000E+00 -0.00000000000E+00 -0.87186944086E+01  0.87186944086E+01  0.00000000000E+00 0. -1.
          2    1    1    2  501    0 -0.21851818227E+01  0.77796907331E+01 -0.12881726782E+00  0.80817824700E+01  0.25500000000E-02 0. -1.
         -2    1    1    2    0  501  0.21851818227E+01 -0.77796907331E+01 -0.10748605253E+01  0.81519285542E+01  0.25500000000E-02 0.  1.
<mgrwt>
<rscale>  0 0.80807558E+01</rscale>
<asrwt>0</asrwt>
<pdfrwt beam="1">0</pdfrwt>
<pdfrwt beam="2">0</pdfrwt>
<totfact> 0.17784311E+11</totfact>
</mgrwt>
</event>
<event>
 4    1  0.3281603E+006  0.2252640E+01  0.7546771E-02  0.2828767E+00
         22   -1    0    0    0    0  0.00000000000E+00  0.00000000000E+00  0.24351482150E+00  0.24351482150E+00  0.00000000000E+00 0. -1.
         22   -1    0    0    0    0 -0.00000000000E+00 -0.00000000000E+00 -0.25231014946E+02  0.25231014946E+02  0.00000000000E+00 0.  1.
          2    1    1    2  501    0  0.22063722230E+01  0.45420692506E+00 -0.71789774789E+01  0.75241017047E+01  0.25500000000E-02 0.  1.
         -2    1    1    2    0  501 -0.22063722230E+01 -0.45420692506E+00 -0.17808522646E+02  0.17950428063E+02  0.25500000000E-02 0. -1.
<mgrwt>
<rscale>  0 0.22526404E+01</rscale>
<asrwt>0</asrwt>
<pdfrwt beam="1">0</pdfrwt>
<pdfrwt beam="2">0</pdfrwt>
<totfact> 0.24952824E+12</totfact>
</mgrwt>
</event>
<event>
 4    1  0.3281603E+006  0.2528908E+01  0.7546771E-02  0.2695921E+00
         22   -1    0    0    0    0  0.00000000000E+00  0.00000000000E+00  0.38262878407E+01  0.38262878407E+01  0.00000000000E+00 0.  1.
         22   -1    0    0    0    0 -0.00000000000E+00 -0.00000000000E+00 -0.17837007127E+01  0.17837007127E+01  0.00000000000E+00 0. -1.
          2    1    1    2  501    0 -0.15658565308E+01  0.19858158254E+01  0.17250161738E+01  0.30612184616E+01  0.25500000000E-02 0. -1.
         -2    1    1    2    0  501  0.15658565308E+01 -0.19858158254E+01  0.31757095420E+00  0.25487700918E+01  0.25500000000E-02 0.  1.
<mgrwt>
<rscale>  0 0.25289084E+01</rscale>
<asrwt>0</asrwt>
<pdfrwt beam="1">0</pdfrwt>
<pdfrwt beam="2">0</pdfrwt>
<totfact> 0.25663557E+12</totfact>
</mgrwt>
</event>
<event>
 4    1  0.3281603E+006  0.2477821E+01  0.7546771E-02  0.2718389E+00
         22   -1    0    0    0    0  0.00000000000E+00  0.00000000000E+00  0.38625082231E+02  0.38625082231E+02  0.00000000000E+00 0.  1.
         22   -1    0    0    0    0 -0.00000000000E+00 -0.00000000000E+00 -0.73741560384E+00  0.73741560384E+00  0.00000000000E+00 0. -1.
          2    1    1    2  501    0 -0.32011805406E+00  0.24570545977E+01  0.36375297878E+02  0.36459592634E+02  0.25500000000E-02 0.  1.
         -2    1    1    2    0  501  0.32011805406E+00 -0.24570545977E+01  0.15123687489E+01  0.29029051999E+01  0.25500000000E-02 0. -1.
<mgrwt>
<rscale>  0 0.24778215E+01</rscale>
<asrwt>0</asrwt>
<pdfrwt beam="1">0</pdfrwt>
<pdfrwt beam="2">0</pdfrwt>
<totfact> 0.41558445E+11</totfact>
</mgrwt>
</event>
<event>
 4    1  0.3281603E+006  0.2604924E+01  0.7546771E-02  0.2664005E+00
         22   -1    0    0    0    0  0.00000000000E+00  0.00000000000E+00  0.51518375030E+00  0.51518375030E+00  0.00000000000E+00 0. -1.
         22   -1    0    0    0    0 -0.00000000000E+00 -0.00000000000E+00 -0.13982007127E+02  0.13982007127E+02  0.00000000000E+00 0.  1.
          2    1    1    2  501    0 -0.25663571853E+01  0.44657831063E+00 -0.49879623347E+01  0.56272014488E+01  0.25500000000E-02 0. -1.
         -2    1    1    2    0  501  0.25663571853E+01 -0.44657831063E+00 -0.84788610423E+01  0.88699894288E+01  0.25500000000E-02 0.  1.
<mgrwt>
<rscale>  0 0.26049238E+01</rscale>
<asrwt>0</asrwt>
<pdfrwt beam="1">0</pdfrwt>
<pdfrwt beam="2">0</pdfrwt>
<totfact> 0.22399037E+12</totfact>
</mgrwt>
</event>
<event>
 4    1  0.3281603E+006  0.3766052E+01  0.7546771E-02  0.2324376E+00
         22   -1    0    0    0    0  0.00000000000E+00  0.00000000000E+00  0.51014447567E+01  0.51014447567E+01  0.00000000000E+00 0. -1.
         22   -1    0    0    0    0 -0.00000000000E+00 -0.00000000000E+00 -0.44430588354E+01  0.44430588354E+01  0.00000000000E+00 0.  1.
          2    1    1    2  501    0 -0.36558692525E+01 -0.90430210169E+00  0.32486839573E+01  0.49736401397E+01  0.25500000000E-02 0. -1.
         -2    1    1    2    0  501  0.36558692525E+01  0.90430210169E+00 -0.25902980359E+01  0.45708634523E+01  0.25500000000E-02 0.  1.
<mgrwt>
<rscale>  0 0.37660521E+01</rscale>
<asrwt>0</asrwt>
<pdfrwt beam="1">0</pdfrwt>
<pdfrwt beam="2">0</pdfrwt>
<totfact> 0.63021548E+11</totfact>
</mgrwt>
</event>
<event>
 4    1  0.3281603E+006  0.2542842E+01  0.7546771E-02  0.2689938E+00
         22   -1    0    0    0    0  0.00000000000E+00  0.00000000000E+00  0.17195358298E+01  0.17195358298E+01  0.00000000000E+00 0. -1.
         22   -1    0    0    0    0 -0.00000000000E+00 -0.00000000000E+00 -0.38421104882E+01  0.38421104882E+01  0.00000000000E+00 0.  1.
          2    1    1    2  501    0  0.16984972526E+01  0.18923921548E+01 -0.65561611291E+00  0.26260007568E+01  0.25500000000E-02 0.  1.
         -2    1    1    2    0  501 -0.16984972526E+01 -0.18923921548E+01 -0.14669585454E+01  0.29356455612E+01  0.25500000000E-02 0. -1.
<mgrwt>
<rscale>  0 0.25428424E+01</rscale>
<asrwt>0</asrwt>
<pdfrwt beam="1">0</pdfrwt>
<pdfrwt beam="2">0</pdfrwt>
<totfact> 0.26642520E+12</totfact>
</mgrwt>
</event>
<event>
 4    1  0.3281603E+006  0.2805479E+01  0.7546771E-02  0.2587471E+00
         22   -1    0    0    0    0  0.00000000000E+00  0.00000000000E+00  0.60790856113E+00  0.60790856113E+00  0.00000000000E+00 0.  1.
         22   -1    0    0    0    0 -0.00000000000E+00 -0.00000000000E+00 -0.14709784766E+02  0.14709784766E+02  0.00000000000E+00 0. -1.
          2    1    1    2  501    0  0.23326900235E+01 -0.15586085142E+01 -0.43997775623E+01  0.52181177015E+01  0.25500000000E-02 0.  1.
         -2    1    1    2    0  501 -0.23326900235E+01  0.15586085142E+01 -0.97020986426E+01  0.10099575626E+02  0.25500000000E-02 0. -1.
<mgrwt>
<rscale>  0 0.28054785E+01</rscale>
<asrwt>0</asrwt>
<pdfrwt beam="1">0</pdfrwt>
<pdfrwt beam="2">0</pdfrwt>
<totfact> 0.17452743E+12</totfact>
</mgrwt>
</event>
<event>
 4    1  0.3281603E+006  0.2317454E+01  0.7546771E-02  0.2794923E+00
         22   -1    0    0    0    0  0.00000000000E+00  0.00000000000E+00  0.22020187343E+01  0.22020187343E+01  0.00000000000E+00 0.  1.
         22   -1    0    0    0    0 -0.00000000000E+00 -0.00000000000E+00 -0.26722008334E+01  0.26722008334E+01  0.00000000000E+00 0. -1.
          2    1    1    2  501    0  0.23160885955E+01  0.79508168450E-01 -0.95513705800E+00  0.25065676199E+01  0.25500000000E-02 0. -1.
         -2    1    1    2    0  501 -0.23160885955E+01 -0.79508168450E-01  0.48495495889E+00  0.23676519477E+01  0.25500000000E-02 0.  1.
<mgrwt>
<rscale>  0 0.23174543E+01</rscale>
<asrwt>0</asrwt>
<pdfrwt beam="1">0</pdfrwt>
<pdfrwt beam="2">0</pdfrwt>
<totfact> 0.30608708E+12</totfact>
</mgrwt>
</event>
<event>
 4    1  0.3281603E+006  0.2294699E+01  0.7546771E-02  0.2806598E+00
         22   -1    0    0    0    0  0.00000000000E+00  0.00000000000E+00  0.16642416479E+01  0.16642416479E+01  0.00000000000E+00 0.  1.
         22   -1    0    0    0    0 -0.00000000000E+00 -0.00000000000E+00 -0.35590330586E+01  0.35590330586E+01  0.00000000000E+00 0. -1.
          2    1    1    2  501    0 -0.17883001375E+01 -0.14379222291E+01 -0.18174953322E+01  0.29272740739E+01  0.25500000000E-02 0. -1.
         -2    1    1    2    0  501  0.17883001375E+01  0.14379222291E+01 -0.77296078381E-01  0.22960006326E+01  0.25500000000E-02 0.  1.
<mgrwt>
<rscale>  0 0.22946992E+01</rscale>
<asrwt>0</asrwt>
<pdfrwt beam="1">0</pdfrwt>
<pdfrwt beam="2">0</pdfrwt>
<totfact> 0.30266970E+12</totfact>
</mgrwt>
</event>
<event>
 4    1  0.3281603E+006  0.3727885E+01  0.7546771E-02  0.2332537E+00
         22   -1    0    0    0    0  0.00000000000E+00  0.00000000000E+00  0.40595369339E+01  0.40595369339E+01  0.00000000000E+00 0. -1.
         22   -1    0    0    0    0 -0.00000000000E+00 -0.00000000000E+00 -0.34433489773E+01  0.34433489773E+01  0.00000000000E+00 0.  1.
          2    1    1    2  501    0 -0.35226647237E+01 -0.12198171886E+01  0.22039742340E-01  0.37279502386E+01  0.25500000000E-02 0. -1.
         -2    1    1    2    0  501  0.35226647237E+01  0.12198171886E+01  0.59414821429E+00  0.37749356726E+01  0.25500000000E-02 0.  1.
<mgrwt>
<rscale>  0 0.37278851E+01</rscale>
<asrwt>0</asrwt>
<pdfrwt beam="1">0</pdfrwt>
<pdfrwt beam="2">0</pdfrwt>
<totfact> 0.11138988E+12</totfact>
</mgrwt>
</event>
<event>
 4    1  0.3281603E+006  0.2081401E+01  0.7546771E-02  0.2927866E+00
         22   -1    0    0    0    0  0.00000000000E+00  0.00000000000E+00  0.21991184542E+00  0.21991184542E+00  0.00000000000E+00 0. -1.
         22   -1    0    0    0    0 -0.00000000000E+00 -0.00000000000E+00 -0.23958424439E+02  0.23958424439E+02  0.00000000000E+00 0.  1.
          2    1    1    2  501    0 -0.33349073535E+00 -0.20545086913E+01 -0.67724299493E+01  0.70850572301E+01  0.25500000000E-02 0. -1.
         -2    1    1    2    0  501  0.33349073535E+00  0.20545086913E+01 -0.16966082644E+02  0.17093279054E+02  0.25500000000E-02 0.  1.
<mgrwt>
<rscale>  0 0.20814006E+01</rscale>
<asrwt>0</asrwt>
<pdfrwt beam="1">0</pdfrwt>
<pdfrwt beam="2">0</pdfrwt>
<totfact> 0.29847458E+12</totfact>
</mgrwt>
</event>
<event>
 4    1  0.3281603E+006  0.3805938E+01  0.7546771E-02  0.2315999E+00
         22   -1    0    0    0    0  0.00000000000E+00  0.00000000000E+00  0.21242525134E+02  0.21242525134E+02  0.00000000000E+00 0. -1.
         22   -1    0    0    0    0 -0.00000000000E+00 -0.00000000000E+00 -0.96631145645E+00  0.96631145645E+00  0.00000000000E+00 0.  1.
          2    1    1    2  501    0  0.37843916872E+01  0.40439711651E+00  0.16162521909E+02  0.16604586066E+02  0.25500000000E-02 0. -1.
         -2    1    1    2    0  501 -0.37843916872E+01 -0.40439711651E+00  0.41136917689E+01  0.56042505245E+01  0.25500000000E-02 0.  1.
<mgrwt>
<rscale>  0 0.38059380E+01</rscale>
<asrwt>0</asrwt>
<pdfrwt beam="1">0</pdfrwt>
<pdfrwt beam="2">0</pdfrwt>
<totfact> 0.65338805E+11</totfact>
</mgrwt>
</event>
<event>
 4    1  0.3281603E+006  0.2242967E+01  0.7546771E-02  0.2833979E+00
         22   -1    0    0    0    0  0.00000000000E+00  0.00000000000E+00  0.72640974479E+01  0.72640974479E+01  0.00000000000E+00 0.  1.
         22   -1    0    0    0    0 -0.00000000000E+00 -0.00000000000E+00 -0.22437861225E+01  0.22437861225E+01  0.00000000000E+00 0. -1.
          2    1    1    2  501    0 -0.21996829983E+01 -0.43850584039E+00  0.64629045378E+01  0.68410550525E+01  0.25500000000E-02 0.  1.
         -2    1    1    2    0  501  0.21996829983E+01  0.43850584039E+00 -0.14425932123E+01  0.26668285179E+01  0.25500000000E-02 0. -1.
<mgrwt>
<rscale>  0 0.22429666E+01</rscale>
<asrwt>0</asrwt>
<pdfrwt beam="1">0</pdfrwt>
<pdfrwt beam="2">0</pdfrwt>
<totfact> 0.91992342E+11</totfact>
</mgrwt>
</event>
<event>
 4    1  0.3281603E+006  0.3745843E+01  0.7546771E-02  0.2328679E+00
         22   -1    0    0    0    0  0.00000000000E+00  0.00000000000E+00  0.36414444243E+00  0.36414444243E+00  0.00000000000E+00 0. -1.
         22   -1    0    0    0    0 -0.00000000000E+00 -0.00000000000E+00 -0.71085979574E+02  0.71085979574E+02  0.00000000000E+00 0.  1.
          2    1    1    2  501    0  0.15882736886E+01 -0.33924507214E+01 -0.11185125444E+02  0.11795692982E+02  0.25500000000E-02 0. -1.
         -2    1    1    2    0  501 -0.15882736886E+01  0.33924507214E+01 -0.59536709688E+02  0.59654431035E+02  0.25500000000E-02 0.  1.
<mgrwt>
<rscale>  0 0.37458433E+01</rscale>
<asrwt>0</asrwt>
<pdfrwt beam="1">0</pdfrwt>
<pdfrwt beam="2">0</pdfrwt>
<totfact> 0.41114350E+11</totfact>
</mgrwt>
</event>
<event>
 4    1  0.3281603E+006  0.2760209E+01  0.7546771E-02  0.2603857E+00
         22   -1    0    0    0    0  0.00000000000E+00  0.00000000000E+00  0.39155838792E+01  0.39155838792E+01  0.00000000000E+00 0.  1.
         22   -1    0    0    0    0 -0.00000000000E+00 -0.00000000000E+00 -0.58054242888E+01  0.58054242888E+01  0.00000000000E+00 0. -1.
          2    1    1    2  501    0  0.19971819489E+01 -0.19052590533E+01  0.30182211058E+01  0.40900382569E+01  0.25500000000E-02 0.  1.
         -2    1    1    2    0  501 -0.19971819489E+01  0.19052590533E+01 -0.49080615155E+01  0.56309699111E+01  0.25500000000E-02 0. -1.
<mgrwt>
<rscale>  0 0.27602091E+01</rscale>
<asrwt>0</asrwt>
<pdfrwt beam="1">0</pdfrwt>
<pdfrwt beam="2">0</pdfrwt>
<totfact> 0.62734592E+11</totfact>
</mgrwt>
</event>
<event>
 4    1  0.3281603E+006  0.2206785E+01  0.7546771E-02  0.2853855E+00
         22   -1    0    0    0    0  0.00000000000E+00  0.00000000000E+00  0.88943083967E+00  0.88943083967E+00  0.00000000000E+00 0. -1.
         22   -1    0    0    0    0 -0.00000000000E+00 -0.00000000000E+00 -0.99918029215E+01  0.99918029215E+01  0.00000000000E+00 0.  1.
          2    1    1    2  501    0  0.67444109979E+00  0.21011954555E+01 -0.89332318355E+00  0.23807406310E+01  0.25500000000E-02 0. -1.
         -2    1    1    2    0  501 -0.67444109979E+00 -0.21011954555E+01 -0.82090488983E+01  0.85004931302E+01  0.25500000000E-02 0.  1.
<mgrwt>
<rscale>  0 0.22067849E+01</rscale>
<asrwt>0</asrwt>
<pdfrwt beam="1">0</pdfrwt>
<pdfrwt beam="2">0</pdfrwt>
<totfact> 0.18154572E+12</totfact>
</mgrwt>
</event>
<event>
 4    1  0.3281603E+006  0.3581306E+01  0.7546771E-02  0.2365269E+00
         22   -1    0    0    0    0  0.00000000000E+00  0.00000000000E+00  0.24297226977E+00  0.24297226977E+00  0.00000000000E+00 0.  1.
         22   -1    0    0    0    0 -0.00000000000E+00 -0.00000000000E+00 -0.87687249606E+02  0.87687249606E+02  0.00000000000E+00 0. -1.
          2    1    1    2  501    0  0.14146461326E+01 -0.32900639642E+01 -0.15985432554E+02  0.16381691152E+02  0.25500000000E-02 0.  1.
         -2    1    1    2    0  501 -0.14146461326E+01  0.32900639642E+01 -0.71458844782E+02  0.71548530723E+02  0.25500000000E-02 0. -1.
<mgrwt>
<rscale>  0 0.35813058E+01</rscale>
<asrwt>0</asrwt>
<pdfrwt beam="1">0</pdfrwt>
<pdfrwt beam="2">0</pdfrwt>
<totfact> 0.48513850E+11</totfact>
</mgrwt>
</event>
<event>
 4    1  0.3281603E+006  0.4872185E+01  0.7546771E-02  0.2138576E+00
         22   -1    0    0    0    0  0.00000000000E+00  0.00000000000E+00  0.32900142391E+00  0.32900142391E+00  0.00000000000E+00 0.  1.
         22   -1    0    0    0    0 -0.00000000000E+00 -0.00000000000E+00 -0.72405328895E+02  0.72405328895E+02  0.00000000000E+00 0. -1.
          2    1    1    2  501    0  0.47629921508E+01  0.10257144135E+01 -0.38188259896E+02  0.38497810128E+02  0.25500000000E-02 0. -1.
         -2    1    1    2    0  501 -0.47629921508E+01 -0.10257144135E+01 -0.33888067575E+02  0.34236520190E+02  0.25500000000E-02 0.  1.
<mgrwt>
<rscale>  0 0.48721854E+01</rscale>
<asrwt>0</asrwt>
<pdfrwt beam="1">0</pdfrwt>
<pdfrwt beam="2">0</pdfrwt>
<totfact> 0.44941439E+11</totfact>
</mgrwt>
</event>
<event>
 4    1  0.3281603E+006  0.4303512E+01  0.7546771E-02  0.2222778E+00
         22   -1    0    0    0    0  0.00000000000E+00  0.00000000000E+00  0.98944023994E+00  0.98944023994E+00  0.00000000000E+00 0. -1.
         22   -1    0    0    0    0 -0.00000000000E+00 -0.00000000000E+00 -0.21952543757E+02  0.21952543757E+02  0.00000000000E+00 0.  1.
          2    1    1    2  501    0 -0.13832492562E+01  0.40751474300E+01 -0.60782956839E+01  0.74475425480E+01  0.25500000000E-02 0. -1.
         -2    1    1    2    0  501  0.13832492562E+01 -0.40751474300E+01 -0.14884807833E+02  0.15494441449E+02  0.25500000000E-02 0.  1.
<mgrwt>
<rscale>  0 0.43035115E+01</rscale>
<asrwt>0</asrwt>
<pdfrwt beam="1">0</pdfrwt>
<pdfrwt beam="2">0</pdfrwt>
<totfact> 0.61034063E+11</totfact>
</mgrwt>
</event>
<event>
 4    1  0.3281603E+006  0.2393986E+01  0.7546771E-02  0.2757197E+00
         22   -1    0    0    0    0  0.00000000000E+00  0.00000000000E+00  0.17206101705E+01  0.17206101705E+01  0.00000000000E+00 0.  1.
         22   -1    0    0    0    0 -0.00000000000E+00 -0.00000000000E+00 -0.42900267902E+01  0.42900267902E+01  0.00000000000E+00 0. -1.
          2    1    1    2  501    0 -0.13915544290E+01 -0.19480086601E+01  0.13631155258E+00  0.23978633844E+01  0.25500000000E-02 0.  1.
         -2    1    1    2    0  501  0.13915544290E+01  0.19480086601E+01 -0.27057281723E+01  0.36127735763E+01  0.25500000000E-02 0. -1.
<mgrwt>
<rscale>  0 0.23939858E+01</rscale>
<asrwt>0</asrwt>
<pdfrwt beam="1">0</pdfrwt>
<pdfrwt beam="2">0</pdfrwt>
<totfact> 0.23381896E+12</totfact>
</mgrwt>
</event>
<event>
 4    1  0.3281603E+006  0.5259198E+01  0.7546771E-02  0.2093279E+00
         22   -1    0    0    0    0  0.00000000000E+00  0.00000000000E+00  0.15854868092E+02  0.15854868092E+02  0.00000000000E+00 0.  1.
         22   -1    0    0    0    0 -0.00000000000E+00 -0.00000000000E+00 -0.17475094516E+01  0.17475094516E+01  0.00000000000E+00 0. -1.
          2    1    1    2  501    0 -0.48139569289E+01  0.21177771462E+01  0.74175728922E+01  0.90928298932E+01  0.25500000000E-02 0. -1.
         -2    1    1    2    0  501  0.48139569289E+01 -0.21177771462E+01  0.66897857477E+01  0.85095476500E+01  0.25500000000E-02 0.  1.
<mgrwt>
<rscale>  0 0.52591984E+01</rscale>
<asrwt>0</asrwt>
<pdfrwt beam="1">0</pdfrwt>
<pdfrwt beam="2">0</pdfrwt>
<totfact> 0.47609072E+11</totfact>
</mgrwt>
</event>
<event>
 4    1  0.3281603E+006  0.2026609E+01  0.7546771E-02  0.2962992E+00
         22   -1    0    0    0    0  0.00000000000E+00  0.00000000000E+00  0.26696079735E+01  0.26696079735E+01  0.00000000000E+00 0. -1.
         22   -1    0    0    0    0 -0.00000000000E+00 -0.00000000000E+00 -0.22780611219E+01  0.22780611219E+01  0.00000000000E+00 0.  1.
          2    1    1    2  501    0 -0.59091658021E+00 -0.19385448988E+01  0.16053222691E+01  0.25853829154E+01  0.25500000000E-02 0. -1.
         -2    1    1    2    0  501  0.59091658021E+00  0.19385448988E+01 -0.12137754175E+01  0.23622861800E+01  0.25500000000E-02 0.  1.
<mgrwt>
<rscale>  0 0.20266093E+01</rscale>
<asrwt>0</asrwt>
<pdfrwt beam="1">0</pdfrwt>
<pdfrwt beam="2">0</pdfrwt>
<totfact> 0.29457743E+12</totfact>
</mgrwt>
</event>
<event>
 4    1  0.3281603E+006  0.2996536E+01  0.7546771E-02  0.2523276E+00
         22   -1    0    0    0    0  0.00000000000E+00  0.00000000000E+00  0.81220048035E+01  0.81220048035E+01  0.00000000000E+00 0.  1.
         22   -1    0    0    0    0 -0.00000000000E+00 -0.00000000000E+00 -0.25455953354E+01  0.25455953354E+01  0.00000000000E+00 0. -1.
          2    1    1    2  501    0  0.11967997532E+01 -0.27471610960E+01  0.67999292310E+01  0.74308995273E+01  0.25500000000E-02 0.  1.
         -2    1    1    2    0  501 -0.11967997532E+01  0.27471610960E+01 -0.12235197628E+01  0.32367006116E+01  0.25500000000E-02 0. -1.
<mgrwt>
<rscale>  0 0.29965364E+01</rscale>
<asrwt>0</asrwt>
<pdfrwt beam="1">0</pdfrwt>
<pdfrwt beam="2">0</pdfrwt>
<totfact> 0.69489799E+11</totfact>
</mgrwt>
</event>
<event>
 4    1  0.3281603E+006  0.2329967E+01  0.7546771E-02  0.2788595E+00
         22   -1    0    0    0    0  0.00000000000E+00  0.00000000000E+00  0.11707759844E+02  0.11707759844E+02  0.00000000000E+00 0.  1.
         22   -1    0    0    0    0 -0.00000000000E+00 -0.00000000000E+00 -0.18044475559E+01  0.18044475559E+01  0.00000000000E+00 0. -1.
          2    1    1    2  501    0 -0.23193164262E+01  0.22251295038E+00  0.10775364700E+02  0.11024392574E+02  0.25500000000E-02 0.  1.
         -2    1    1    2    0  501  0.23193164262E+01 -0.22251295038E+00 -0.87205241193E+00  0.24878148263E+01  0.25500000000E-02 0. -1.
<mgrwt>
<rscale>  0 0.23299672E+01</rscale>
<asrwt>0</asrwt>
<pdfrwt beam="1">0</pdfrwt>
<pdfrwt beam="2">0</pdfrwt>
<totfact> 0.66527405E+11</totfact>
</mgrwt>
</event>
<event>
 4    1  0.3281603E+006  0.3315449E+01  0.7546771E-02  0.2431007E+00
         22   -1    0    0    0    0  0.00000000000E+00  0.00000000000E+00  0.14200962710E+01  0.14200962710E+01  0.00000000000E+00 0. -1.
         22   -1    0    0    0    0 -0.00000000000E+00 -0.00000000000E+00 -0.16412434841E+02  0.16412434841E+02  0.00000000000E+00 0.  1.
          2    1    1    2  501    0  0.11086542649E+01  0.31245928950E+01 -0.10149690932E+01  0.34673280493E+01  0.25500000000E-02 0. -1.
         -2    1    1    2    0  501 -0.11086542649E+01 -0.31245928950E+01 -0.13977369477E+02  0.14365203063E+02  0.25500000000E-02 0.  1.
<mgrwt>
<rscale>  0 0.33154489E+01</rscale>
<asrwt>0</asrwt>
<pdfrwt beam="1">0</pdfrwt>
<pdfrwt beam="2">0</pdfrwt>
<totfact> 0.57933869E+11</totfact>
</mgrwt>
</event>
<event>
 4    1  0.3281603E+006  0.2646861E+01  0.7546771E-02  0.2647123E+00
         22   -1    0    0    0    0  0.00000000000E+00  0.00000000000E+00  0.10833966607E+03  0.10833966607E+03  0.00000000000E+00 0. -1.
         22   -1    0    0    0    0 -0.00000000000E+00 -0.00000000000E+00 -0.93545772536E-01  0.93545772536E-01  0.00000000000E+00 0.  1.
          2    1    1    2  501    0  0.21112236053E+01 -0.15964339713E+01  0.84247466840E+02  0.84289035717E+02  0.25500000000E-02 0. -1.
         -2    1    1    2    0  501 -0.21112236053E+01  0.15964339713E+01  0.23998653454E+02  0.24144176122E+02  0.25500000000E-02 0.  1.
<mgrwt>
<rscale>  0 0.26468610E+01</rscale>
<asrwt>0</asrwt>
<pdfrwt beam="1">0</pdfrwt>
<pdfrwt beam="2">0</pdfrwt>
<totfact> 0.10420159E+12</totfact>
</mgrwt>
</event>
<event>
 4    1  0.3281603E+006  0.2874654E+01  0.7546771E-02  0.2563338E+00
         22   -1    0    0    0    0  0.00000000000E+00  0.00000000000E+00  0.25685082935E+02  0.25685082935E+02  0.00000000000E+00 0. -1.
         22   -1    0    0    0    0 -0.00000000000E+00 -0.00000000000E+00 -0.74814544443E+00  0.74814544443E+00  0.00000000000E+00 0.  1.
          2    1    1    2  501    0  0.11734710567E+01  0.26242327328E+01  0.22446483070E+02  0.22629808671E+02  0.25500000000E-02 0. -1.
         -2    1    1    2    0  501 -0.11734710567E+01 -0.26242327328E+01  0.24904544204E+01  0.38034197086E+01  0.25500000000E-02 0.  1.
<mgrwt>
<rscale>  0 0.28746545E+01</rscale>
<asrwt>0</asrwt>
<pdfrwt beam="1">0</pdfrwt>
<pdfrwt beam="2">0</pdfrwt>
<totfact> 0.68874843E+11</totfact>
</mgrwt>
</event>
<event>
 4    1  0.3281603E+006  0.2939555E+01  0.7546771E-02  0.2541633E+00
         22   -1    0    0    0    0  0.00000000000E+00  0.00000000000E+00  0.39558273042E+01  0.39558273042E+01  0.00000000000E+00 0. -1.
         22   -1    0    0    0    0 -0.00000000000E+00 -0.00000000000E+00 -0.70575410018E+01  0.70575410018E+01  0.00000000000E+00 0.  1.
          2    1    1    2  501    0  0.25570219327E+01 -0.14500409681E+01  0.30249673765E+01  0.42179869731E+01  0.25500000000E-02 0. -1.
         -2    1    1    2    0  501 -0.25570219327E+01  0.14500409681E+01 -0.61266810741E+01  0.67953813330E+01  0.25500000000E-02 0.  1.
<mgrwt>
<rscale>  0 0.29395555E+01</rscale>
<asrwt>0</asrwt>
<pdfrwt beam="1">0</pdfrwt>
<pdfrwt beam="2">0</pdfrwt>
<totfact> 0.49103776E+11</totfact>
</mgrwt>
</event>
<event>
 4    1  0.3281603E+006  0.2483727E+01  0.7546771E-02  0.2715748E+00
         22   -1    0    0    0    0  0.00000000000E+00  0.00000000000E+00  0.81949035825E+00  0.81949035825E+00  0.00000000000E+00 0.  1.
         22   -1    0    0    0    0 -0.00000000000E+00 -0.00000000000E+00 -0.90910197215E+01  0.90910197215E+01  0.00000000000E+00 0. -1.
          2    1    1    2  501    0  0.12767467578E+01  0.21304489843E+01 -0.20809174868E+01  0.32402344433E+01  0.25500000000E-02 0.  1.
         -2    1    1    2    0  501 -0.12767467578E+01 -0.21304489843E+01 -0.61906118765E+01  0.66702756364E+01  0.25500000000E-02 0. -1.
<mgrwt>
<rscale>  0 0.24837274E+01</rscale>
<asrwt>0</asrwt>
<pdfrwt beam="1">0</pdfrwt>
<pdfrwt beam="2">0</pdfrwt>
<totfact> 0.22341251E+12</totfact>
</mgrwt>
</event>
<event>
 4    1  0.3281603E+006  0.2399588E+01  0.7546771E-02  0.2754525E+00
         22   -1    0    0    0    0  0.00000000000E+00  0.00000000000E+00  0.10457739730E+02  0.10457739730E+02  0.00000000000E+00 0.  1.
         22   -1    0    0    0    0 -0.00000000000E+00 -0.00000000000E+00 -0.82024951726E+00  0.82024951726E+00  0.00000000000E+00 0. -1.
          2    1    1    2  501    0 -0.23762050328E+01  0.33416514289E+00  0.80519196509E+01  0.84018708195E+01  0.25500000000E-02 0.  1.
         -2    1    1    2    0  501  0.23762050328E+01 -0.33416514289E+00  0.15855705614E+01  0.28761184274E+01  0.25500000000E-02 0. -1.
<mgrwt>
<rscale>  0 0.23995881E+01</rscale>
<asrwt>0</asrwt>
<pdfrwt beam="1">0</pdfrwt>
<pdfrwt beam="2">0</pdfrwt>
<totfact> 0.18839099E+12</totfact>
</mgrwt>
</event>
<event>
 4    1  0.3281603E+006  0.3480739E+01  0.7546771E-02  0.2389103E+00
         22   -1    0    0    0    0  0.00000000000E+00  0.00000000000E+00  0.28807963850E+01  0.28807963850E+01  0.00000000000E+00 0.  1.
         22   -1    0    0    0    0 -0.00000000000E+00 -0.00000000000E+00 -0.51051062867E+01  0.51051062867E+01  0.00000000000E+00 0. -1.
          2    1    1    2  501    0  0.30923037269E+01 -0.15978716946E+01  0.56389992640E+00  0.35261205200E+01  0.25500000000E-02 0.  1.
         -2    1    1    2    0  501 -0.30923037269E+01  0.15978716946E+01 -0.27882098281E+01  0.44597821517E+01  0.25500000000E-02 0. -1.
<mgrwt>
<rscale>  0 0.34807388E+01</rscale>
<asrwt>0</asrwt>
<pdfrwt beam="1">0</pdfrwt>
<pdfrwt beam="2">0</pdfrwt>
<totfact> 0.10469315E+12</totfact>
</mgrwt>
</event>
<event>
 4    1  0.3281603E+006  0.2129831E+01  0.7546771E-02  0.2898282E+00
         22   -1    0    0    0    0  0.00000000000E+00  0.00000000000E+00  0.12308412624E+01  0.12308412624E+01  0.00000000000E+00 0. -1.
         22   -1    0    0    0    0 -0.00000000000E+00 -0.00000000000E+00 -0.98587450126E+01  0.98587450126E+01  0.00000000000E+00 0.  1.
          2    1    1    2  501    0  0.92666861903E+00  0.19176698863E+01  0.73716128471E-01  0.21311060725E+01  0.25500000000E-02 0. -1.
         -2    1    1    2    0  501 -0.92666861903E+00 -0.19176698863E+01 -0.87016198787E+01  0.89584802024E+01  0.25500000000E-02 0.  1.
<mgrwt>
<rscale>  0 0.21298308E+01</rscale>
<asrwt>0</asrwt>
<pdfrwt beam="1">0</pdfrwt>
<pdfrwt beam="2">0</pdfrwt>
<totfact> 0.12728402E+12</totfact>
</mgrwt>
</event>
<event>
 4    1  0.3281603E+006  0.2182608E+01  0.7546771E-02  0.2867488E+00
         22   -1    0    0    0    0  0.00000000000E+00  0.00000000000E+00  0.69485818032E+01  0.69485818032E+01  0.00000000000E+00 0. -1.
         22   -1    0    0    0    0 -0.00000000000E+00 -0.00000000000E+00 -0.97456693400E+00  0.97456693400E+00  0.00000000000E+00 0.  1.
          2    1    1    2  501    0 -0.21044289555E+01 -0.57892166710E+00  0.51442769126E+01  0.55881448604E+01  0.25500000000E-02 0. -1.
         -2    1    1    2    0  501  0.21044289555E+01  0.57892166710E+00  0.82973795663E+00  0.23350038768E+01  0.25500000000E-02 0.  1.
<mgrwt>
<rscale>  0 0.21826081E+01</rscale>
<asrwt>0</asrwt>
<pdfrwt beam="1">0</pdfrwt>
<pdfrwt beam="2">0</pdfrwt>
<totfact> 0.25322370E+12</totfact>
</mgrwt>
</event>
<event>
 4    1  0.3281603E+006  0.2399587E+01  0.7546771E-02  0.2754525E+00
         22   -1    0    0    0    0  0.00000000000E+00  0.00000000000E+00  0.45254073908E+01  0.45254073908E+01  0.00000000000E+00 0. -1.
         22   -1    0    0    0    0 -0.00000000000E+00 -0.00000000000E+00 -0.14054738769E+01  0.14054738769E+01  0.00000000000E+00 0.  1.
          2    1    1    2  501    0 -0.21917271224E+01 -0.97690523170E+00  0.24725321619E+01  0.34454946532E+01  0.25500000000E-02 0. -1.
         -2    1    1    2    0  501  0.21917271224E+01  0.97690523170E+00  0.64740135200E+00  0.24853866146E+01  0.25500000000E-02 0.  1.
<mgrwt>
<rscale>  0 0.23995871E+01</rscale>
<asrwt>0</asrwt>
<pdfrwt beam="1">0</pdfrwt>
<pdfrwt beam="2">0</pdfrwt>
<totfact> 0.27712662E+12</totfact>
</mgrwt>
</event>
<event>
 4    1  0.3281603E+006  0.2458445E+01  0.7546771E-02  0.2727139E+00
         22   -1    0    0    0    0  0.00000000000E+00  0.00000000000E+00  0.29703127654E+01  0.29703127654E+01  0.00000000000E+00 0. -1.
         22   -1    0    0    0    0 -0.00000000000E+00 -0.00000000000E+00 -0.30522707556E+01  0.30522707556E+01  0.00000000000E+00 0.  1.
          2    1    1    2  501    0  0.14677579991E+01 -0.19722146722E+01  0.16976433970E+01  0.29876318152E+01  0.25500000000E-02 0. -1.
         -2    1    1    2    0  501 -0.14677579991E+01  0.19722146722E+01 -0.17796013871E+01  0.30349517058E+01  0.25500000000E-02 0.  1.
<mgrwt>
<rscale>  0 0.24584448E+01</rscale>
<asrwt>0</asrwt>
<pdfrwt beam="1">0</pdfrwt>
<pdfrwt beam="2">0</pdfrwt>
<totfact> 0.18500677E+12</totfact>
</mgrwt>
</event>
<event>
 4    1  0.3281603E+006  0.3296489E+01  0.7546771E-02  0.2436049E+00
         22   -1    0    0    0    0  0.00000000000E+00  0.00000000000E+00  0.26246987996E+01  0.26246987996E+01  0.00000000000E+00 0. -1.
         22   -1    0    0    0    0 -0.00000000000E+00 -0.00000000000E+00 -0.51307034104E+01  0.51307034104E+01  0.00000000000E+00 0.  1.
          2    1    1    2  501    0  0.18490619724E+01  0.27290665805E+01  0.45075837560E+00  0.33271645878E+01  0.25500000000E-02 0. -1.
         -2    1    1    2    0  501 -0.18490619724E+01 -0.27290665805E+01 -0.29567629864E+01  0.44282376222E+01  0.25500000000E-02 0.  1.
<mgrwt>
<rscale>  0 0.32964892E+01</rscale>
<asrwt>0</asrwt>
<pdfrwt beam="1">0</pdfrwt>
<pdfrwt beam="2">0</pdfrwt>
<totfact> 0.11600578E+12</totfact>
</mgrwt>
</event>
<event>
 4    1  0.3281603E+006  0.4360106E+01  0.7546771E-02  0.2213326E+00
         22   -1    0    0    0    0  0.00000000000E+00  0.00000000000E+00  0.50209381266E+00  0.50209381266E+00  0.00000000000E+00 0. -1.
         22   -1    0    0    0    0 -0.00000000000E+00 -0.00000000000E+00 -0.97403491212E+02  0.97403491212E+02  0.00000000000E+00 0.  1.
          2    1    1    2  501    0 -0.24272698058E+01  0.36219997759E+01 -0.10177193749E+02  0.11071847190E+02  0.25500000000E-02 0. -1.
         -2    1    1    2    0  501  0.24272698058E+01 -0.36219997759E+01 -0.86724203650E+02  0.86833737835E+02  0.25500000000E-02 0.  1.
<mgrwt>
<rscale>  0 0.43601064E+01</rscale>
<asrwt>0</asrwt>
<pdfrwt beam="1">0</pdfrwt>
<pdfrwt beam="2">0</pdfrwt>
<totfact> 0.18535078E+11</totfact>
</mgrwt>
</event>
<event>
 4    1  0.3281603E+006  0.2687611E+01  0.7546771E-02  0.2631184E+00
         22   -1    0    0    0    0  0.00000000000E+00  0.00000000000E+00  0.31518292067E+00  0.31518292067E+00  0.00000000000E+00 0. -1.
         22   -1    0    0    0    0 -0.00000000000E+00 -0.00000000000E+00 -0.50440002995E+02  0.50440002995E+02  0.00000000000E+00 0.  1.
          2    1    1    2  501    0 -0.25218556443E+00 -0.26757515562E+01 -0.63165361464E+01  0.68645378097E+01  0.25500000000E-02 0. -1.
         -2    1    1    2    0  501  0.25218556443E+00  0.26757515562E+01 -0.43808283928E+02  0.43890648106E+02  0.25500000000E-02 0.  1.
<mgrwt>
<rscale>  0 0.26876105E+01</rscale>
<asrwt>0</asrwt>
<pdfrwt beam="1">0</pdfrwt>
<pdfrwt beam="2">0</pdfrwt>
<totfact> 0.76536086E+11</totfact>
</mgrwt>
</event>
<event>
 4    1  0.3281603E+006  0.2090975E+01  0.7546771E-02  0.2921912E+00
         22   -1    0    0    0    0  0.00000000000E+00  0.00000000000E+00  0.14732310853E+01  0.14732310853E+01  0.00000000000E+00 0. -1.
         22   -1    0    0    0    0 -0.00000000000E+00 -0.00000000000E+00 -0.29678285934E+01  0.29678285934E+01  0.00000000000E+00 0.  1.
          2    1    1    2  501    0 -0.16150830375E+01  0.13280351754E+01 -0.73565642574E+00  0.22166117216E+01  0.25500000000E-02 0.  1.
         -2    1    1    2    0  501  0.16150830375E+01 -0.13280351754E+01 -0.75894108235E+00  0.22244479572E+01  0.25500000000E-02 0. -1.
<mgrwt>
<rscale>  0 0.20909752E+01</rscale>
<asrwt>0</asrwt>
<pdfrwt beam="1">0</pdfrwt>
<pdfrwt beam="2">0</pdfrwt>
<totfact> 0.43079305E+12</totfact>
</mgrwt>
</event>
<event>
 4    1  0.3281603E+006  0.2785646E+01  0.7546771E-02  0.2594590E+00
         22   -1    0    0    0    0  0.00000000000E+00  0.00000000000E+00  0.18951733605E+01  0.18951733605E+01  0.00000000000E+00 0.  1.
         22   -1    0    0    0    0 -0.00000000000E+00 -0.00000000000E+00 -0.69056462850E+01  0.69056462850E+01  0.00000000000E+00 0. -1.
          2    1    1    2  501    0  0.26736145553E+01  0.78205125235E+00  0.30233700490E+00  0.28020051960E+01  0.25500000000E-02 0.  1.
         -2    1    1    2    0  501 -0.26736145553E+01 -0.78205125235E+00 -0.53128099293E+01  0.59988144495E+01  0.25500000000E-02 0. -1.
<mgrwt>
<rscale>  0 0.27856463E+01</rscale>
<asrwt>0</asrwt>
<pdfrwt beam="1">0</pdfrwt>
<pdfrwt beam="2">0</pdfrwt>
<totfact> 0.11885200E+12</totfact>
</mgrwt>
</event>
<event>
 4    1  0.3281603E+006  0.6674076E+01  0.7546771E-02  0.1964035E+00
         22   -1    0    0    0    0  0.00000000000E+00  0.00000000000E+00  0.26409932397E+02  0.26409932397E+02  0.00000000000E+00 0.  1.
         22   -1    0    0    0    0 -0.00000000000E+00 -0.00000000000E+00 -0.18491835837E+01  0.18491835837E+01  0.00000000000E+00 0. -1.
          2    1    1    2  501    0 -0.66354806511E+01 -0.71671738637E+00  0.16469869096E+02  0.17770759179E+02  0.25500000000E-02 0.  1.
         -2    1    1    2    0  501  0.66354806511E+01  0.71671738637E+00  0.80908797181E+01  0.10488356802E+02  0.25500000000E-02 0. -1.
<mgrwt>
<rscale>  0 0.66740762E+01</rscale>
<asrwt>0</asrwt>
<pdfrwt beam="1">0</pdfrwt>
<pdfrwt beam="2">0</pdfrwt>
<totfact> 0.23583403E+11</totfact>
</mgrwt>
</event>
<event>
 4    1  0.3281603E+006  0.2080222E+01  0.7546771E-02  0.2928603E+00
         22   -1    0    0    0    0  0.00000000000E+00  0.00000000000E+00  0.60969103368E+02  0.60969103368E+02  0.00000000000E+00 0.  1.
         22   -1    0    0    0    0 -0.00000000000E+00 -0.00000000000E+00 -0.19691717385E+00  0.19691717385E+00  0.00000000000E+00 0. -1.
          2    1    1    2  501    0 -0.15817949220E+01  0.13510145901E+01  0.54844203173E+02  0.54883640038E+02  0.25500000000E-02 0.  1.
         -2    1    1    2    0  501  0.15817949220E+01 -0.13510145901E+01  0.59279830211E+01  0.62823805041E+01  0.25500000000E-02 0. -1.
<mgrwt>
<rscale>  0 0.20802216E+01</rscale>
<asrwt>0</asrwt>
<pdfrwt beam="1">0</pdfrwt>
<pdfrwt beam="2">0</pdfrwt>
<totfact> 0.10065525E+12</totfact>
</mgrwt>
</event>
<event>
 4    1  0.3281603E+006  0.2027267E+01  0.7546771E-02  0.2962559E+00
         22   -1    0    0    0    0  0.00000000000E+00  0.00000000000E+00  0.25375485642E+00  0.25375485642E+00  0.00000000000E+00 0.  1.
         22   -1    0    0    0    0 -0.00000000000E+00 -0.00000000000E+00 -0.16201191647E+02  0.16201191647E+02  0.00000000000E+00 0. -1.
          2    1    1    2  501    0 -0.18257804443E+00 -0.20190272457E+01 -0.78263600655E+01  0.80846598035E+01  0.25500000000E-02 0. -1.
         -2    1    1    2    0  501  0.18257804443E+00  0.20190272457E+01 -0.81210767248E+01  0.83702866996E+01  0.25500000000E-02 0.  1.
<mgrwt>
<rscale>  0 0.20272672E+01</rscale>
<asrwt>0</asrwt>
<pdfrwt beam="1">0</pdfrwt>
<pdfrwt beam="2">0</pdfrwt>
<totfact> 0.41415592E+12</totfact>
</mgrwt>
</event>
<event>
 4    1  0.3281603E+006  0.2131862E+01  0.7546771E-02  0.2897070E+00
         22   -1    0    0    0    0  0.00000000000E+00  0.00000000000E+00  0.88272288981E+02  0.88272288981E+02  0.00000000000E+00 0.  1.
         22   -1    0    0    0    0 -0.00000000000E+00 -0.00000000000E+00 -0.51660641693E-01  0.51660641693E-01  0.00000000000E+00 0. -1.
          2    1    1    2  501    0  0.20234387850E+01 -0.67121098365E+00  0.46673992304E+02  0.46722653957E+02  0.25500000000E-02 0. -1.
         -2    1    1    2    0  501 -0.20234387850E+01  0.67121098365E+00  0.41546636036E+02  0.41601295666E+02  0.25500000000E-02 0.  1.
<mgrwt>
<rscale>  0 0.21318619E+01</rscale>
<asrwt>0</asrwt>
<pdfrwt beam="1">0</pdfrwt>
<pdfrwt beam="2">0</pdfrwt>
<totfact> 0.26742602E+12</totfact>
</mgrwt>
</event>
<event>
 4    1  0.3281603E+006  0.2244352E+01  0.7546771E-02  0.2833230E+00
         22   -1    0    0    0    0  0.00000000000E+00  0.00000000000E+00  0.27468754414E+01  0.27468754414E+01  0.00000000000E+00 0.  1.
         22   -1    0    0    0    0 -0.00000000000E+00 -0.00000000000E+00 -0.18454395232E+01  0.18454395232E+01  0.00000000000E+00 0. -1.
          2    1    1    2  501    0 -0.21066875376E+01  0.77393519919E+00  0.63337458772E+00  0.23320115661E+01  0.25500000000E-02 0.  1.
         -2    1    1    2    0  501  0.21066875376E+01 -0.77393519919E+00  0.26806133049E+00  0.22603033984E+01  0.25500000000E-02 0. -1.
<mgrwt>
<rscale>  0 0.22443517E+01</rscale>
<asrwt>0</asrwt>
<pdfrwt beam="1">0</pdfrwt>
<pdfrwt beam="2">0</pdfrwt>
<totfact> 0.36367056E+12</totfact>
</mgrwt>
</event>
<event>
 4    1  0.3281603E+006  0.2231868E+01  0.7546771E-02  0.2840011E+00
         22   -1    0    0    0    0  0.00000000000E+00  0.00000000000E+00  0.35090142530E+00  0.35090142530E+00  0.00000000000E+00 0.  1.
         22   -1    0    0    0    0 -0.00000000000E+00 -0.00000000000E+00 -0.15622128187E+02  0.15622128187E+02  0.00000000000E+00 0. -1.
          2    1    1    2  501    0  0.64770412485E+00 -0.21358150886E+01 -0.52221685386E+01  0.56791088627E+01  0.25500000000E-02 0. -1.
         -2    1    1    2    0  501 -0.64770412485E+00  0.21358150886E+01 -0.10049058224E+02  0.10293920750E+02  0.25500000000E-02 0.  1.
<mgrwt>
<rscale>  0 0.22318677E+01</rscale>
<asrwt>0</asrwt>
<pdfrwt beam="1">0</pdfrwt>
<pdfrwt beam="2">0</pdfrwt>
<totfact> 0.30120491E+12</totfact>
</mgrwt>
</event>
<event>
 4    1  0.3281603E+006  0.2330847E+01  0.7546771E-02  0.2788152E+00
         22   -1    0    0    0    0  0.00000000000E+00  0.00000000000E+00  0.19060408075E+01  0.19060408075E+01  0.00000000000E+00 0.  1.
         22   -1    0    0    0    0 -0.00000000000E+00 -0.00000000000E+00 -0.32544881926E+01  0.32544881926E+01  0.00000000000E+00 0. -1.
          2    1    1    2  501    0  0.18072031136E+01  0.14720251637E+01  0.23505685145E+00  0.23426692900E+01  0.25500000000E-02 0.  1.
         -2    1    1    2    0  501 -0.18072031136E+01 -0.14720251637E+01 -0.15835042366E+01  0.28178597101E+01  0.25500000000E-02 0. -1.
<mgrwt>
<rscale>  0 0.23308470E+01</rscale>
<asrwt>0</asrwt>
<pdfrwt beam="1">0</pdfrwt>
<pdfrwt beam="2">0</pdfrwt>
<totfact> 0.28738894E+12</totfact>
</mgrwt>
</event>
<event>
 4    1  0.3281603E+006  0.2601341E+01  0.7546771E-02  0.2665471E+00
         22   -1    0    0    0    0  0.00000000000E+00  0.00000000000E+00  0.19842624769E+01  0.19842624769E+01  0.00000000000E+00 0.  1.
         22   -1    0    0    0    0 -0.00000000000E+00 -0.00000000000E+00 -0.13402368232E+02  0.13402368232E+02  0.00000000000E+00 0. -1.
          2    1    1    2  501    0  0.10269066952E+01 -0.23900689368E+01  0.93372890095E+00  0.27638420806E+01  0.25500000000E-02 0.  1.
         -2    1    1    2    0  501 -0.10269066952E+01  0.23900689368E+01 -0.12351834656E+02  0.12622788628E+02  0.25500000000E-02 0. -1.
<mgrwt>
<rscale>  0 0.26013407E+01</rscale>
<asrwt>0</asrwt>
<pdfrwt beam="1">0</pdfrwt>
<pdfrwt beam="2">0</pdfrwt>
<totfact> 0.50537126E+11</totfact>
</mgrwt>
</event>
<event>
 4    1  0.3281603E+006  0.4056271E+01  0.7546771E-02  0.2266666E+00
         22   -1    0    0    0    0  0.00000000000E+00  0.00000000000E+00  0.24193794223E+02  0.24193794223E+02  0.00000000000E+00 0. -1.
         22   -1    0    0    0    0 -0.00000000000E+00 -0.00000000000E+00 -0.69807637173E+00  0.69807637173E+00  0.00000000000E+00 0.  1.
          2    1    1    2  501    0  0.88526750791E+00 -0.39584877621E+01  0.13747078742E+02  0.14333021467E+02  0.25500000000E-02 0. -1.
         -2    1    1    2    0  501 -0.88526750791E+00  0.39584877621E+01  0.97486391086E+01  0.10558849127E+02  0.25500000000E-02 0.  1.
<mgrwt>
<rscale>  0 0.40562705E+01</rscale>
<asrwt>0</asrwt>
<pdfrwt beam="1">0</pdfrwt>
<pdfrwt beam="2">0</pdfrwt>
<totfact> 0.80351225E+11</totfact>
</mgrwt>
</event>
<event>
 4    1  0.3281603E+006  0.2050513E+01  0.7546771E-02  0.2947442E+00
         22   -1    0    0    0    0  0.00000000000E+00  0.00000000000E+00  0.26627406688E+01  0.26627406688E+01  0.00000000000E+00 0.  1.
         22   -1    0    0    0    0 -0.00000000000E+00 -0.00000000000E+00 -0.17309910494E+01  0.17309910494E+01  0.00000000000E+00 0. -1.
          2    1    1    2  501    0  0.20504610434E+01  0.14376102808E-01 -0.18499192062E+00  0.20588408573E+01  0.25500000000E-02 0. -1.
         -2    1    1    2    0  501 -0.20504610434E+01 -0.14376102808E-01  0.11167415399E+01  0.23348908609E+01  0.25500000000E-02 0.  1.
<mgrwt>
<rscale>  0 0.20505130E+01</rscale>
<asrwt>0</asrwt>
<pdfrwt beam="1">0</pdfrwt>
<pdfrwt beam="2">0</pdfrwt>
<totfact> 0.40601185E+12</totfact>
</mgrwt>
</event>
<event>
 4    1  0.3281603E+006  0.2053749E+01  0.7546771E-02  0.2945364E+00
         22   -1    0    0    0    0  0.00000000000E+00  0.00000000000E+00  0.17272314910E+01  0.17272314910E+01  0.00000000000E+00 0.  1.
         22   -1    0    0    0    0 -0.00000000000E+00 -0.00000000000E+00 -0.20612700722E+02  0.20612700722E+02  0.00000000000E+00 0. -1.
          2    1    1    2  501    0 -0.19499185007E+01  0.64474651057E+00  0.10447257174E+01  0.23042001973E+01  0.25500000000E-02 0.  1.
         -2    1    1    2    0  501  0.19499185007E+01 -0.64474651057E+00 -0.19930194948E+02  0.20035732015E+02  0.25500000000E-02 0. -1.
<mgrwt>
<rscale>  0 0.20537494E+01</rscale>
<asrwt>0</asrwt>
<pdfrwt beam="1">0</pdfrwt>
<pdfrwt beam="2">0</pdfrwt>
<totfact> 0.34836856E+11</totfact>
</mgrwt>
</event>
<event>
 4    1  0.3281603E+006  0.2738270E+01  0.7546771E-02  0.2611975E+00
         22   -1    0    0    0    0  0.00000000000E+00  0.00000000000E+00  0.21738609322E+01  0.21738609322E+01  0.00000000000E+00 0.  1.
         22   -1    0    0    0    0 -0.00000000000E+00 -0.00000000000E+00 -0.49693164388E+01  0.49693164388E+01  0.00000000000E+00 0. -1.
          2    1    1    2  501    0  0.20346981528E+01 -0.18325178991E+01 -0.33730986988E+01  0.43446426502E+01  0.25500000000E-02 0. -1.
         -2    1    1    2    0  501 -0.20346981528E+01  0.18325178991E+01  0.57764319218E+00  0.27985347208E+01  0.25500000000E-02 0.  1.
<mgrwt>
<rscale>  0 0.27382704E+01</rscale>
<asrwt>0</asrwt>
<pdfrwt beam="1">0</pdfrwt>
<pdfrwt beam="2">0</pdfrwt>
<totfact> 0.14997538E+12</totfact>
</mgrwt>
</event>
<event>
 4    1  0.3281603E+006  0.2358104E+01  0.7546771E-02  0.2774597E+00
         22   -1    0    0    0    0  0.00000000000E+00  0.00000000000E+00  0.53326473979E+00  0.53326473979E+00  0.00000000000E+00 0.  1.
         22   -1    0    0    0    0 -0.00000000000E+00 -0.00000000000E+00 -0.10591749092E+02  0.10591749092E+02  0.00000000000E+00 0. -1.
          2    1    1    2  501    0  0.15336257535E+01 -0.17912677474E+01 -0.57217866135E+01  0.61886587115E+01  0.25500000000E-02 0.  1.
         -2    1    1    2    0  501 -0.15336257535E+01  0.17912677474E+01 -0.43366977390E+01  0.49363551206E+01  0.25500000000E-02 0. -1.
<mgrwt>
<rscale>  0 0.23581040E+01</rscale>
<asrwt>0</asrwt>
<pdfrwt beam="1">0</pdfrwt>
<pdfrwt beam="2">0</pdfrwt>
<totfact> 0.30229734E+12</totfact>
</mgrwt>
</event>
<event>
 4    1  0.3281603E+006  0.3201091E+01  0.7546771E-02  0.2462215E+00
         22   -1    0    0    0    0  0.00000000000E+00  0.00000000000E+00  0.51153155803E+01  0.51153155803E+01  0.00000000000E+00 0.  1.
         22   -1    0    0    0    0 -0.00000000000E+00 -0.00000000000E+00 -0.20427550983E+01  0.20427550983E+01  0.00000000000E+00 0. -1.
          2    1    1    2  501    0 -0.29641893193E+01  0.12085347658E+01  0.20343377951E+01  0.37928236668E+01  0.25500000000E-02 0.  1.
         -2    1    1    2    0  501  0.29641893193E+01 -0.12085347658E+01  0.10382226869E+01  0.33652470118E+01  0.25500000000E-02 0. -1.
<mgrwt>
<rscale>  0 0.32010906E+01</rscale>
<asrwt>0</asrwt>
<pdfrwt beam="1">0</pdfrwt>
<pdfrwt beam="2">0</pdfrwt>
<totfact> 0.15575273E+12</totfact>
</mgrwt>
</event>
<event>
 4    1  0.3281603E+006  0.2153810E+01  0.7546771E-02  0.2884111E+00
         22   -1    0    0    0    0  0.00000000000E+00  0.00000000000E+00  0.35400874256E+00  0.35400874256E+00  0.00000000000E+00 0.  1.
         22   -1    0    0    0    0 -0.00000000000E+00 -0.00000000000E+00 -0.35884429008E+02  0.35884429008E+02  0.00000000000E+00 0. -1.
          2    1    1    2  501    0 -0.20814051779E+01 -0.55375512913E+00 -0.33284993303E+01  0.39645688986E+01  0.25500000000E-02 0.  1.
         -2    1    1    2    0  501  0.20814051779E+01  0.55375512913E+00 -0.32201920935E+02  0.32273868852E+02  0.25500000000E-02 0. -1.
<mgrwt>
<rscale>  0 0.21538103E+01</rscale>
<asrwt>0</asrwt>
<pdfrwt beam="1">0</pdfrwt>
<pdfrwt beam="2">0</pdfrwt>
<totfact> 0.10470149E+12</totfact>
</mgrwt>
</event>
<event>
 4    1  0.3281603E+006  0.2180069E+01  0.7546771E-02  0.2868937E+00
         22   -1    0    0    0    0  0.00000000000E+00  0.00000000000E+00  0.32300975012E+00  0.32300975012E+00  0.00000000000E+00 0.  1.
         22   -1    0    0    0    0 -0.00000000000E+00 -0.00000000000E+00 -0.20471834255E+02  0.20471834255E+02  0.00000000000E+00 0. -1.
          2    1    1    2  501    0 -0.12697442220E+01 -0.17721303177E+01 -0.45601909227E+01  0.50545072961E+01  0.25500000000E-02 0.  1.
         -2    1    1    2    0  501  0.12697442220E+01  0.17721303177E+01 -0.15588633583E+02  0.15740336709E+02  0.25500000000E-02 0. -1.
<mgrwt>
<rscale>  0 0.21800694E+01</rscale>
<asrwt>0</asrwt>
<pdfrwt beam="1">0</pdfrwt>
<pdfrwt beam="2">0</pdfrwt>
<totfact> 0.23637490E+12</totfact>
</mgrwt>
</event>
<event>
 4    1  0.3281603E+006  0.2037008E+01  0.7546771E-02  0.2956184E+00
         22   -1    0    0    0    0  0.00000000000E+00  0.00000000000E+00  0.77711935845E+01  0.77711935845E+01  0.00000000000E+00 0.  1.
         22   -1    0    0    0    0 -0.00000000000E+00 -0.00000000000E+00 -0.53445319903E+00  0.53445319903E+00  0.00000000000E+00 0. -1.
          2    1    1    2  501    0  0.17992636093E+01 -0.95501073746E+00  0.37462398270E+01  0.42642366713E+01  0.25500000000E-02 0.  1.
         -2    1    1    2    0  501 -0.17992636093E+01  0.95501073746E+00  0.34905005585E+01  0.40414101123E+01  0.25500000000E-02 0. -1.
<mgrwt>
<rscale>  0 0.20370080E+01</rscale>
<asrwt>0</asrwt>
<pdfrwt beam="1">0</pdfrwt>
<pdfrwt beam="2">0</pdfrwt>
<totfact> 0.43811959E+12</totfact>
</mgrwt>
</event>
<event>
 4    1  0.3281603E+006  0.2836763E+01  0.7546771E-02  0.2576425E+00
         22   -1    0    0    0    0  0.00000000000E+00  0.00000000000E+00  0.40485119532E+00  0.40485119532E+00  0.00000000000E+00 0. -1.
         22   -1    0    0    0    0 -0.00000000000E+00 -0.00000000000E+00 -0.20530969343E+02  0.20530969343E+02  0.00000000000E+00 0.  1.
          2    1    1    2  501    0  0.22856824649E+01  0.16801414976E+01 -0.81948102506E+01  0.86719168197E+01  0.25500000000E-02 0.  1.
         -2    1    1    2    0  501 -0.22856824649E+01 -0.16801414976E+01 -0.11931307897E+02  0.12263903718E+02  0.25500000000E-02 0. -1.
<mgrwt>
<rscale>  0 0.28367633E+01</rscale>
<asrwt>0</asrwt>
<pdfrwt beam="1">0</pdfrwt>
<pdfrwt beam="2">0</pdfrwt>
<totfact> 0.18273395E+12</totfact>
</mgrwt>
</event>
<event>
 4    1  0.3281603E+006  0.5125715E+01  0.7546771E-02  0.2108290E+00
         22   -1    0    0    0    0  0.00000000000E+00  0.00000000000E+00  0.73305868497E+01  0.73305868497E+01  0.00000000000E+00 0. -1.
         22   -1    0    0    0    0 -0.00000000000E+00 -0.00000000000E+00 -0.37454249438E+01  0.37454249438E+01  0.00000000000E+00 0.  1.
          2    1    1    2  501    0 -0.50112465424E+01  0.10771988992E+01  0.64293569919E+00  0.51658805825E+01  0.25500000000E-02 0.  1.
         -2    1    1    2    0  501  0.50112465424E+01 -0.10771988992E+01  0.29422262067E+01  0.59101312110E+01  0.25500000000E-02 0. -1.
<mgrwt>
<rscale>  0 0.51257152E+01</rscale>
<asrwt>0</asrwt>
<pdfrwt beam="1">0</pdfrwt>
<pdfrwt beam="2">0</pdfrwt>
<totfact> 0.50036423E+11</totfact>
</mgrwt>
</event>
<event>
 4    1  0.3281603E+006  0.2766244E+01  0.7546771E-02  0.2601644E+00
         22   -1    0    0    0    0  0.00000000000E+00  0.00000000000E+00  0.12687697699E+01  0.12687697699E+01  0.00000000000E+00 0.  1.
         22   -1    0    0    0    0 -0.00000000000E+00 -0.00000000000E+00 -0.12535096987E+02  0.12535096987E+02  0.00000000000E+00 0. -1.
          2    1    1    2  501    0 -0.16104494053E+01  0.22491222401E+01 -0.66156152404E+00  0.28442517980E+01  0.25500000000E-02 0.  1.
         -2    1    1    2    0  501  0.16104494053E+01 -0.22491222401E+01 -0.10604765693E+02  0.10959614959E+02  0.25500000000E-02 0. -1.
<mgrwt>
<rscale>  0 0.27662438E+01</rscale>
<asrwt>0</asrwt>
<pdfrwt beam="1">0</pdfrwt>
<pdfrwt beam="2">0</pdfrwt>
<totfact> 0.91808301E+11</totfact>
</mgrwt>
</event>
<event>
 4    1  0.3281603E+006  0.5115072E+01  0.7546771E-02  0.2109514E+00
         22   -1    0    0    0    0  0.00000000000E+00  0.00000000000E+00  0.47807670273E+01  0.47807670273E+01  0.00000000000E+00 0.  1.
         22   -1    0    0    0    0 -0.00000000000E+00 -0.00000000000E+00 -0.13464547641E+02  0.13464547641E+02  0.00000000000E+00 0. -1.
          2    1    1    2  501    0 -0.38931137634E+01 -0.33177732187E+01  0.26863664287E+01  0.57775881644E+01  0.25500000000E-02 0.  1.
         -2    1    1    2    0  501  0.38931137634E+01  0.33177732187E+01 -0.11370147042E+02  0.12467726504E+02  0.25500000000E-02 0. -1.
<mgrwt>
<rscale>  0 0.51150719E+01</rscale>
<asrwt>0</asrwt>
<pdfrwt beam="1">0</pdfrwt>
<pdfrwt beam="2">0</pdfrwt>
<totfact> 0.17973173E+11</totfact>
</mgrwt>
</event>
<event>
 4    1  0.3281603E+006  0.2172533E+01  0.7546771E-02  0.2873256E+00
         22   -1    0    0    0    0  0.00000000000E+00  0.00000000000E+00  0.11514223106E+00  0.11514223106E+00  0.00000000000E+00 0.  1.
         22   -1    0    0    0    0 -0.00000000000E+00 -0.00000000000E+00 -0.40993573458E+02  0.40993573458E+02  0.00000000000E+00 0. -1.
          2    1    1    2  501    0  0.16631013347E+01 -0.13978507436E+01 -0.20570395133E+02  0.20684802518E+02  0.25500000000E-02 0. -1.
         -2    1    1    2    0  501 -0.16631013347E+01  0.13978507436E+01 -0.20308036093E+02  0.20423913171E+02  0.25500000000E-02 0.  1.
<mgrwt>
<rscale>  0 0.21725329E+01</rscale>
<asrwt>0</asrwt>
<pdfrwt beam="1">0</pdfrwt>
<pdfrwt beam="2">0</pdfrwt>
<totfact> 0.30861991E+12</totfact>
</mgrwt>
</event>
<event>
 4    1  0.3281603E+006  0.2228103E+01  0.7546771E-02  0.2842070E+00
         22   -1    0    0    0    0  0.00000000000E+00  0.00000000000E+00  0.32551694405E+00  0.32551694405E+00  0.00000000000E+00 0. -1.
         22   -1    0    0    0    0 -0.00000000000E+00 -0.00000000000E+00 -0.32180623091E+02  0.32180623091E+02  0.00000000000E+00 0.  1.
          2    1    1    2  501    0  0.19112680518E+01  0.11452027111E+01 -0.41389452544E+01  0.47005647678E+01  0.25500000000E-02 0. -1.
         -2    1    1    2    0  501 -0.19112680518E+01 -0.11452027111E+01 -0.27716160893E+02  0.27805575268E+02  0.25500000000E-02 0.  1.
<mgrwt>
<rscale>  0 0.22281026E+01</rscale>
<asrwt>0</asrwt>
<pdfrwt beam="1">0</pdfrwt>
<pdfrwt beam="2">0</pdfrwt>
<totfact> 0.13232467E+12</totfact>
</mgrwt>
</event>
<event>
 4    1  0.3281603E+006  0.2447950E+01  0.7546771E-02  0.2731932E+00
         22   -1    0    0    0    0  0.00000000000E+00  0.00000000000E+00  0.45645569468E+01  0.45645569468E+01  0.00000000000E+00 0.  1.
         22   -1    0    0    0    0 -0.00000000000E+00 -0.00000000000E+00 -0.24077612162E+01  0.24077612162E+01  0.00000000000E+00 0. -1.
          2    1    1    2  501    0  0.16660577364E+01 -0.17935175999E+01  0.34293029052E+01  0.42133809085E+01  0.25500000000E-02 0.  1.
         -2    1    1    2    0  501 -0.16660577364E+01  0.17935175999E+01 -0.12725071747E+01  0.27589372545E+01  0.25500000000E-02 0. -1.
<mgrwt>
<rscale>  0 0.24479502E+01</rscale>
<asrwt>0</asrwt>
<pdfrwt beam="1">0</pdfrwt>
<pdfrwt beam="2">0</pdfrwt>
<totfact> 0.14727136E+12</totfact>
</mgrwt>
</event>
<event>
 4    1  0.3281603E+006  0.2456173E+01  0.7546771E-02  0.2728173E+00
         22   -1    0    0    0    0  0.00000000000E+00  0.00000000000E+00  0.15144308552E+02  0.15144308552E+02  0.00000000000E+00 0.  1.
         22   -1    0    0    0    0 -0.00000000000E+00 -0.00000000000E+00 -0.54309460004E+00  0.54309460004E+00  0.00000000000E+00 0. -1.
          2    1    1    2  501    0  0.21301427183E+01  0.12228130237E+01  0.32513115354E+01  0.40747776496E+01  0.25500000000E-02 0. -1.
         -2    1    1    2    0  501 -0.21301427183E+01 -0.12228130237E+01  0.11349902416E+02  0.11612625502E+02  0.25500000000E-02 0.  1.
<mgrwt>
<rscale>  0 0.24561731E+01</rscale>
<asrwt>0</asrwt>
<pdfrwt beam="1">0</pdfrwt>
<pdfrwt beam="2">0</pdfrwt>
<totfact> 0.19129599E+12</totfact>
</mgrwt>
</event>
<event>
 4    1  0.3281603E+006  0.2105374E+01  0.7546771E-02  0.2913057E+00
         22   -1    0    0    0    0  0.00000000000E+00  0.00000000000E+00  0.13059802169E+02  0.13059802169E+02  0.00000000000E+00 0. -1.
         22   -1    0    0    0    0 -0.00000000000E+00 -0.00000000000E+00 -0.11364338298E+01  0.11364338298E+01  0.00000000000E+00 0.  1.
          2    1    1    2  501    0  0.55067383703E-01 -0.21046526258E+01  0.11906074659E+02  0.12090790519E+02  0.25500000000E-02 0. -1.
         -2    1    1    2    0  501 -0.55067383703E-01  0.21046526258E+01  0.17293679867E-01  0.21054454792E+01  0.25500000000E-02 0.  1.
<mgrwt>
<rscale>  0 0.21053745E+01</rscale>
<asrwt>0</asrwt>
<pdfrwt beam="1">0</pdfrwt>
<pdfrwt beam="2">0</pdfrwt>
<totfact> 0.99057195E+11</totfact>
</mgrwt>
</event>
<event>
 4    1  0.3281603E+006  0.2099521E+01  0.7546771E-02  0.2916642E+00
         22   -1    0    0    0    0  0.00000000000E+00  0.00000000000E+00  0.98400737493E+00  0.98400737493E+00  0.00000000000E+00 0. -1.
         22   -1    0    0    0    0 -0.00000000000E+00 -0.00000000000E+00 -0.49632647289E+01  0.49632647289E+01  0.00000000000E+00 0.  1.
          2    1    1    2  501    0  0.11955528002E+01 -0.17258727742E+01 -0.10613840733E+01  0.23525573286E+01  0.25500000000E-02 0. -1.
         -2    1    1    2    0  501 -0.11955528002E+01  0.17258727742E+01 -0.29178732807E+01  0.35947147753E+01  0.25500000000E-02 0.  1.
<mgrwt>
<rscale>  0 0.20995213E+01</rscale>
<asrwt>0</asrwt>
<pdfrwt beam="1">0</pdfrwt>
<pdfrwt beam="2">0</pdfrwt>
<totfact> 0.37373452E+12</totfact>
</mgrwt>
</event>
<event>
 4    1  0.3281603E+006  0.4115197E+01  0.7546771E-02  0.2255801E+00
         22   -1    0    0    0    0  0.00000000000E+00  0.00000000000E+00  0.86413890821E+00  0.86413890821E+00  0.00000000000E+00 0. -1.
         22   -1    0    0    0    0 -0.00000000000E+00 -0.00000000000E+00 -0.26101723267E+02  0.26101723267E+02  0.00000000000E+00 0.  1.
          2    1    1    2  501    0  0.37229311934E+01  0.17534600287E+01 -0.58882203234E+01  0.71837304948E+01  0.25500000000E-02 0. -1.
         -2    1    1    2    0  501 -0.37229311934E+01 -0.17534600287E+01 -0.19349364035E+02  0.19782131680E+02  0.25500000000E-02 0.  1.
<mgrwt>
<rscale>  0 0.41151969E+01</rscale>
<asrwt>0</asrwt>
<pdfrwt beam="1">0</pdfrwt>
<pdfrwt beam="2">0</pdfrwt>
<totfact> 0.57281865E+11</totfact>
</mgrwt>
</event>
<event>
 4    1  0.3281603E+006  0.2865742E+01  0.7546771E-02  0.2566388E+00
         22   -1    0    0    0    0  0.00000000000E+00  0.00000000000E+00  0.19175848113E+01  0.19175848113E+01  0.00000000000E+00 0. -1.
         22   -1    0    0    0    0 -0.00000000000E+00 -0.00000000000E+00 -0.42995586796E+01  0.42995586796E+01  0.00000000000E+00 0.  1.
          2    1    1    2  501    0 -0.22457435486E+01  0.17801977924E+01 -0.99643738211E+00  0.30340339855E+01  0.25500000000E-02 0.  1.
         -2    1    1    2    0  501  0.22457435486E+01 -0.17801977924E+01 -0.13855364862E+01  0.31831095054E+01  0.25500000000E-02 0. -1.
<mgrwt>
<rscale>  0 0.28657416E+01</rscale>
<asrwt>0</asrwt>
<pdfrwt beam="1">0</pdfrwt>
<pdfrwt beam="2">0</pdfrwt>
<totfact> 0.20576996E+12</totfact>
</mgrwt>
</event>
<event>
 4    1  0.3281603E+006  0.3421784E+01  0.7546771E-02  0.2403642E+00
         22   -1    0    0    0    0  0.00000000000E+00  0.00000000000E+00  0.33350822150E+01  0.33350822150E+01  0.00000000000E+00 0. -1.
         22   -1    0    0    0    0 -0.00000000000E+00 -0.00000000000E+00 -0.10137099598E+02  0.10137099598E+02  0.00000000000E+00 0.  1.
          2    1    1    2  501    0 -0.80461052845E+00 -0.33258383208E+01  0.20451287431E+01  0.39863713722E+01  0.25500000000E-02 0. -1.
         -2    1    1    2    0  501  0.80461052845E+00  0.33258383208E+01 -0.88471461261E+01  0.94858104408E+01  0.25500000000E-02 0.  1.
<mgrwt>
<rscale>  0 0.34217839E+01</rscale>
<asrwt>0</asrwt>
<pdfrwt beam="1">0</pdfrwt>
<pdfrwt beam="2">0</pdfrwt>
<totfact> 0.38799198E+11</totfact>
</mgrwt>
</event>
<event>
 4    1  0.3281603E+006  0.2754219E+01  0.7546771E-02  0.2606061E+00
         22   -1    0    0    0    0  0.00000000000E+00  0.00000000000E+00  0.37602072212E+01  0.37602072212E+01  0.00000000000E+00 0. -1.
         22   -1    0    0    0    0 -0.00000000000E+00 -0.00000000000E+00 -0.28964248648E+01  0.28964248648E+01  0.00000000000E+00 0.  1.
          2    1    1    2  501    0  0.27520744541E+01  0.10864158337E+00  0.22654793816E+01  0.35662473450E+01  0.25500000000E-02 0. -1.
         -2    1    1    2    0  501 -0.27520744541E+01 -0.10864158337E+00 -0.14016970252E+01  0.30903847410E+01  0.25500000000E-02 0.  1.
<mgrwt>
<rscale>  0 0.27542192E+01</rscale>
<asrwt>0</asrwt>
<pdfrwt beam="1">0</pdfrwt>
<pdfrwt beam="2">0</pdfrwt>
<totfact> 0.14921883E+12</totfact>
</mgrwt>
</event>
<event>
 4    1  0.3281603E+006  0.2887907E+01  0.7546771E-02  0.2558835E+00
         22   -1    0    0    0    0  0.00000000000E+00  0.00000000000E+00  0.38342102309E+01  0.38342102309E+01  0.00000000000E+00 0. -1.
         22   -1    0    0    0    0 -0.00000000000E+00 -0.00000000000E+00 -0.22204776357E+01  0.22204776357E+01  0.00000000000E+00 0.  1.
          2    1    1    2  501    0  0.27487231171E+01  0.88573248458E+00  0.12393691212E+01  0.31426172420E+01  0.25500000000E-02 0.  1.
         -2    1    1    2    0  501 -0.27487231171E+01 -0.88573248458E+00  0.37436347402E+00  0.29120706245E+01  0.25500000000E-02 0. -1.
<mgrwt>
<rscale>  0 0.28879071E+01</rscale>
<asrwt>0</asrwt>
<pdfrwt beam="1">0</pdfrwt>
<pdfrwt beam="2">0</pdfrwt>
<totfact> 0.19869004E+12</totfact>
</mgrwt>
</event>
<event>
 4    1  0.3281603E+006  0.3704129E+01  0.7546771E-02  0.2337690E+00
         22   -1    0    0    0    0  0.00000000000E+00  0.00000000000E+00  0.22008451482E+02  0.22008451482E+02  0.00000000000E+00 0.  1.
         22   -1    0    0    0    0 -0.00000000000E+00 -0.00000000000E+00 -0.14501291511E+01  0.14501291511E+01  0.00000000000E+00 0. -1.
          2    1    1    2  501    0 -0.31647162211E+01  0.19248724186E+01  0.19135292482E+02  0.19490510190E+02  0.25500000000E-02 0.  1.
         -2    1    1    2    0  501  0.31647162211E+01 -0.19248724186E+01  0.14230298488E+01  0.39680704430E+01  0.25500000000E-02 0. -1.
<mgrwt>
<rscale>  0 0.37041287E+01</rscale>
<asrwt>0</asrwt>
<pdfrwt beam="1">0</pdfrwt>
<pdfrwt beam="2">0</pdfrwt>
<totfact> 0.39262434E+11</totfact>
</mgrwt>
</event>
<event>
 4    1  0.3281603E+006  0.2235855E+01  0.7546771E-02  0.2837837E+00
         22   -1    0    0    0    0  0.00000000000E+00  0.00000000000E+00  0.10252312162E+01  0.10252312162E+01  0.00000000000E+00 0. -1.
         22   -1    0    0    0    0 -0.00000000000E+00 -0.00000000000E+00 -0.61416708423E+01  0.61416708423E+01  0.00000000000E+00 0.  1.
          2    1    1    2  501    0  0.19223843756E+01  0.11417007874E+01 -0.93149159458E+00  0.24221324218E+01  0.25500000000E-02 0. -1.
         -2    1    1    2    0  501 -0.19223843756E+01 -0.11417007874E+01 -0.41849480315E+01  0.47447696366E+01  0.25500000000E-02 0.  1.
<mgrwt>
<rscale>  0 0.22358553E+01</rscale>
<asrwt>0</asrwt>
<pdfrwt beam="1">0</pdfrwt>
<pdfrwt beam="2">0</pdfrwt>
<totfact> 0.27692323E+12</totfact>
</mgrwt>
</event>
<event>
 4    1  0.3281603E+006  0.2187374E+01  0.7546771E-02  0.2864778E+00
         22   -1    0    0    0    0  0.00000000000E+00  0.00000000000E+00  0.32082933912E+00  0.32082933912E+00  0.00000000000E+00 0.  1.
         22   -1    0    0    0    0 -0.00000000000E+00 -0.00000000000E+00 -0.15981917985E+02  0.15981917985E+02  0.00000000000E+00 0. -1.
          2    1    1    2  501    0 -0.10307360344E+01  0.19292957285E+01 -0.99383936474E+01  0.10176260294E+02  0.25500000000E-02 0. -1.
         -2    1    1    2    0  501  0.10307360344E+01 -0.19292957285E+01 -0.57226949983E+01  0.61264870298E+01  0.25500000000E-02 0.  1.
<mgrwt>
<rscale>  0 0.21873741E+01</rscale>
<asrwt>0</asrwt>
<pdfrwt beam="1">0</pdfrwt>
<pdfrwt beam="2">0</pdfrwt>
<totfact> 0.32385800E+12</totfact>
</mgrwt>
</event>
<event>
 4    1  0.3281603E+006  0.2033668E+01  0.7546771E-02  0.2958363E+00
         22   -1    0    0    0    0  0.00000000000E+00  0.00000000000E+00  0.11772683461E+01  0.11772683461E+01  0.00000000000E+00 0. -1.
         22   -1    0    0    0    0 -0.00000000000E+00 -0.00000000000E+00 -0.59752530721E+01  0.59752530721E+01  0.00000000000E+00 0.  1.
          2    1    1    2  501    0 -0.20335346434E+01 -0.23181978475E-01 -0.46946790596E+01  0.51162308905E+01  0.25500000000E-02 0.  1.
         -2    1    1    2    0  501  0.20335346434E+01  0.23181978475E-01 -0.10330566646E+00  0.20362905277E+01  0.25500000000E-02 0. -1.
<mgrwt>
<rscale>  0 0.20336684E+01</rscale>
<asrwt>0</asrwt>
<pdfrwt beam="1">0</pdfrwt>
<pdfrwt beam="2">0</pdfrwt>
<totfact> 0.24425750E+12</totfact>
</mgrwt>
</event>
<event>
 4    1  0.3281603E+006  0.2214894E+01  0.7546771E-02  0.2849346E+00
         22   -1    0    0    0    0  0.00000000000E+00  0.00000000000E+00  0.23150428487E+02  0.23150428487E+02  0.00000000000E+00 0. -1.
         22   -1    0    0    0    0 -0.00000000000E+00 -0.00000000000E+00 -0.34618885261E+00  0.34618885261E+00  0.00000000000E+00 0.  1.
          2    1    1    2  501    0 -0.22083197541E+01  0.17050898500E+00  0.18719004431E+02  0.18849585748E+02  0.25500000000E-02 0. -1.
         -2    1    1    2    0  501  0.22083197541E+01 -0.17050898500E+00  0.40852352025E+01  0.46470315915E+01  0.25500000000E-02 0.  1.
<mgrwt>
<rscale>  0 0.22148941E+01</rscale>
<asrwt>0</asrwt>
<pdfrwt beam="1">0</pdfrwt>
<pdfrwt beam="2">0</pdfrwt>
<totfact> 0.18747137E+12</totfact>
</mgrwt>
</event>
<event>
 4    1  0.3281603E+006  0.2724483E+01  0.7546771E-02  0.2617138E+00
         22   -1    0    0    0    0  0.00000000000E+00  0.00000000000E+00  0.13700446073E+01  0.13700446073E+01  0.00000000000E+00 0.  1.
         22   -1    0    0    0    0 -0.00000000000E+00 -0.00000000000E+00 -0.65326618211E+01  0.65326618211E+01  0.00000000000E+00 0. -1.
          2    1    1    2  501    0  0.27107401296E+01  0.27328864270E+00 -0.94906099509E+00  0.28850514739E+01  0.25500000000E-02 0. -1.
         -2    1    1    2    0  501 -0.27107401296E+01 -0.27328864270E+00 -0.42135562187E+01  0.50176549545E+01  0.25500000000E-02 0.  1.
<mgrwt>
<rscale>  0 0.27244826E+01</rscale>
<asrwt>0</asrwt>
<pdfrwt beam="1">0</pdfrwt>
<pdfrwt beam="2">0</pdfrwt>
<totfact> 0.18458110E+12</totfact>
</mgrwt>
</event>
<event>
 4    1  0.3281603E+006  0.3434899E+01  0.7546771E-02  0.2400370E+00
         22   -1    0    0    0    0  0.00000000000E+00  0.00000000000E+00  0.42268202314E+02  0.42268202314E+02  0.00000000000E+00 0. -1.
         22   -1    0    0    0    0 -0.00000000000E+00 -0.00000000000E+00 -0.31898675978E+00  0.31898675978E+00  0.00000000000E+00 0.  1.
          2    1    1    2  501    0  0.64658426854E+00  0.33734923056E+01  0.28501007055E+02  0.28707245274E+02  0.25500000000E-02 0. -1.
         -2    1    1    2    0  501 -0.64658426854E+00 -0.33734923056E+01  0.13448208499E+02  0.13879943800E+02  0.25500000000E-02 0.  1.
<mgrwt>
<rscale>  0 0.34348986E+01</rscale>
<asrwt>0</asrwt>
<pdfrwt beam="1">0</pdfrwt>
<pdfrwt beam="2">0</pdfrwt>
<totfact> 0.95207850E+11</totfact>
</mgrwt>
</event>
<event>
 4    1  0.3281603E+006  0.3008060E+01  0.7546771E-02  0.2519639E+00
         22   -1    0    0    0    0  0.00000000000E+00  0.00000000000E+00  0.13043308131E+00  0.13043308131E+00  0.00000000000E+00 0.  1.
         22   -1    0    0    0    0 -0.00000000000E+00 -0.00000000000E+00 -0.10622499643E+03  0.10622499643E+03  0.00000000000E+00 0. -1.
          2    1    1    2  501    0  0.27979294661E+01 -0.11045391246E+01 -0.21725110213E+02  0.21932369600E+02  0.25500000000E-02 0.  1.
         -2    1    1    2    0  501 -0.27979294661E+01  0.11045391246E+01 -0.84369453137E+02  0.84423059913E+02  0.25500000000E-02 0. -1.
<mgrwt>
<rscale>  0 0.30080596E+01</rscale>
<asrwt>0</asrwt>
<pdfrwt beam="1">0</pdfrwt>
<pdfrwt beam="2">0</pdfrwt>
<totfact> 0.74140038E+11</totfact>
</mgrwt>
</event>
<event>
 4    1  0.3281603E+006  0.3240788E+01  0.7546771E-02  0.2451161E+00
         22   -1    0    0    0    0  0.00000000000E+00  0.00000000000E+00  0.27083029673E+01  0.27083029673E+01  0.00000000000E+00 0. -1.
         22   -1    0    0    0    0 -0.00000000000E+00 -0.00000000000E+00 -0.39405087918E+01  0.39405087918E+01  0.00000000000E+00 0.  1.
          2    1    1    2  501    0  0.10129717079E+01  0.30784073574E+01 -0.19728774645E+00  0.32467880276E+01  0.25500000000E-02 0. -1.
         -2    1    1    2    0  501 -0.10129717079E+01 -0.30784073574E+01 -0.10349180780E+01  0.34020237315E+01  0.25500000000E-02 0.  1.
<mgrwt>
<rscale>  0 0.32407885E+01</rscale>
<asrwt>0</asrwt>
<pdfrwt beam="1">0</pdfrwt>
<pdfrwt beam="2">0</pdfrwt>
<totfact> 0.15273235E+12</totfact>
</mgrwt>
</event>
<event>
 4    1  0.3281603E+006  0.2068072E+01  0.7546771E-02  0.2936244E+00
         22   -1    0    0    0    0  0.00000000000E+00  0.00000000000E+00  0.13923827203E+01  0.13923827203E+01  0.00000000000E+00 0.  1.
         22   -1    0    0    0    0 -0.00000000000E+00 -0.00000000000E+00 -0.25997331226E+02  0.25997331226E+02  0.00000000000E+00 0. -1.
          2    1    1    2  501    0  0.97679188757E+00  0.18228530079E+01  0.55791685810E+00  0.21420068168E+01  0.25500000000E-02 0.  1.
         -2    1    1    2    0  501 -0.97679188757E+00 -0.18228530079E+01 -0.25162865364E+02  0.25247707129E+02  0.25500000000E-02 0. -1.
<mgrwt>
<rscale>  0 0.20680720E+01</rscale>
<asrwt>0</asrwt>
<pdfrwt beam="1">0</pdfrwt>
<pdfrwt beam="2">0</pdfrwt>
<totfact> 0.33356112E+11</totfact>
</mgrwt>
</event>
<event>
 4    1  0.3281603E+006  0.2658875E+01  0.7546771E-02  0.2642377E+00
         22   -1    0    0    0    0  0.00000000000E+00  0.00000000000E+00  0.85870130711E+00  0.85870130711E+00  0.00000000000E+00 0.  1.
         22   -1    0    0    0    0 -0.00000000000E+00 -0.00000000000E+00 -0.13698964549E+02  0.13698964549E+02  0.00000000000E+00 0. -1.
          2    1    1    2  501    0  0.22879136168E+01 -0.13546448294E+01 -0.18222845168E+01  0.32234048294E+01  0.25500000000E-02 0.  1.
         -2    1    1    2    0  501 -0.22879136168E+01  0.13546448294E+01 -0.11017978725E+02  0.11334261026E+02  0.25500000000E-02 0. -1.
<mgrwt>
<rscale>  0 0.26588753E+01</rscale>
<asrwt>0</asrwt>
<pdfrwt beam="1">0</pdfrwt>
<pdfrwt beam="2">0</pdfrwt>
<totfact> 0.12866420E+12</totfact>
</mgrwt>
</event>
<event>
 4    1  0.3281603E+006  0.2015973E+01  0.7546771E-02  0.2970027E+00
         22   -1    0    0    0    0  0.00000000000E+00  0.00000000000E+00  0.20398034073E+02  0.20398034073E+02  0.00000000000E+00 0. -1.
         22   -1    0    0    0    0 -0.00000000000E+00 -0.00000000000E+00 -0.36565953961E+00  0.36565953961E+00  0.00000000000E+00 0.  1.
          2    1    1    2  501    0 -0.26992079804E+00 -0.19978194961E+01  0.17020017695E+02  0.17138994977E+02  0.25500000000E-02 0. -1.
         -2    1    1    2    0  501  0.26992079804E+00  0.19978194961E+01  0.30123568389E+01  0.36246986363E+01  0.25500000000E-02 0.  1.
<mgrwt>
<rscale>  0 0.20159728E+01</rscale>
<asrwt>0</asrwt>
<pdfrwt beam="1">0</pdfrwt>
<pdfrwt beam="2">0</pdfrwt>
<totfact> 0.20655486E+12</totfact>
</mgrwt>
</event>
<event>
 4    1  0.3281603E+006  0.2904231E+01  0.7546771E-02  0.2553338E+00
         22   -1    0    0    0    0  0.00000000000E+00  0.00000000000E+00  0.31717905965E+02  0.31717905965E+02  0.00000000000E+00 0. -1.
         22   -1    0    0    0    0 -0.00000000000E+00 -0.00000000000E+00 -0.11287584861E+01  0.11287584861E+01  0.00000000000E+00 0.  1.
          2    1    1    2  501    0 -0.16720501631E+01 -0.23746161124E+01  0.29653582217E+02  0.29795461034E+02  0.25500000000E-02 0. -1.
         -2    1    1    2    0  501  0.16720501631E+01  0.23746161124E+01  0.93556526160E+00  0.30512034168E+01  0.25500000000E-02 0.  1.
<mgrwt>
<rscale>  0 0.29042314E+01</rscale>
<asrwt>0</asrwt>
<pdfrwt beam="1">0</pdfrwt>
<pdfrwt beam="2">0</pdfrwt>
<totfact> 0.32957167E+11</totfact>
</mgrwt>
</event>
<event>
 4    1  0.3281603E+006  0.2018288E+01  0.7546771E-02  0.2968489E+00
         22   -1    0    0    0    0  0.00000000000E+00  0.00000000000E+00  0.39199619285E+01  0.39199619285E+01  0.00000000000E+00 0.  1.
         22   -1    0    0    0    0 -0.00000000000E+00 -0.00000000000E+00 -0.15478845501E+01  0.15478845501E+01  0.00000000000E+00 0. -1.
          2    1    1    2  501    0  0.11874189728E+01 -0.16320282571E+01  0.27533538066E+01  0.34138605326E+01  0.25500000000E-02 0.  1.
         -2    1    1    2    0  501 -0.11874189728E+01  0.16320282571E+01 -0.38127642812E+00  0.20539859460E+01  0.25500000000E-02 0. -1.
<mgrwt>
<rscale>  0 0.20182880E+01</rscale>
<asrwt>0</asrwt>
<pdfrwt beam="1">0</pdfrwt>
<pdfrwt beam="2">0</pdfrwt>
<totfact> 0.29371947E+12</totfact>
</mgrwt>
</event>
<event>
 4    1  0.3281603E+006  0.2132139E+01  0.7546771E-02  0.2896905E+00
         22   -1    0    0    0    0  0.00000000000E+00  0.00000000000E+00  0.53957800197E+00  0.53957800197E+00  0.00000000000E+00 0. -1.
         22   -1    0    0    0    0 -0.00000000000E+00 -0.00000000000E+00 -0.96717736854E+01  0.96717736854E+01  0.00000000000E+00 0.  1.
          2    1    1    2  501    0  0.19551707501E+01  0.85047977120E+00 -0.27330606215E+01  0.34663576513E+01  0.25500000000E-02 0. -1.
         -2    1    1    2    0  501 -0.19551707501E+01 -0.85047977120E+00 -0.63991350619E+01  0.67449940361E+01  0.25500000000E-02 0.  1.
<mgrwt>
<rscale>  0 0.21321386E+01</rscale>
<asrwt>0</asrwt>
<pdfrwt beam="1">0</pdfrwt>
<pdfrwt beam="2">0</pdfrwt>
<totfact> 0.33299974E+12</totfact>
</mgrwt>
</event>
<event>
 4    1  0.3281603E+006  0.2875196E+01  0.7546771E-02  0.2563153E+00
         22   -1    0    0    0    0  0.00000000000E+00  0.00000000000E+00  0.54217267358E+01  0.54217267358E+01  0.00000000000E+00 0.  1.
         22   -1    0    0    0    0 -0.00000000000E+00 -0.00000000000E+00 -0.84692798095E+01  0.84692798095E+01  0.00000000000E+00 0. -1.
          2    1    1    2  501    0 -0.27726327369E+01  0.76108640835E+00  0.47655197658E+01  0.55656922261E+01  0.25500000000E-02 0.  1.
         -2    1    1    2    0  501  0.27726327369E+01 -0.76108640835E+00 -0.78130728396E+01  0.83253143192E+01  0.25500000000E-02 0. -1.
<mgrwt>
<rscale>  0 0.28751959E+01</rscale>
<asrwt>0</asrwt>
<pdfrwt beam="1">0</pdfrwt>
<pdfrwt beam="2">0</pdfrwt>
<totfact> 0.27185104E+11</totfact>
</mgrwt>
</event>
<event>
 4    1  0.3281603E+006  0.2013496E+01  0.7546771E-02  0.2971676E+00
         22   -1    0    0    0    0  0.00000000000E+00  0.00000000000E+00  0.64545619094E-01  0.64545619094E-01  0.00000000000E+00 0. -1.
         22   -1    0    0    0    0 -0.00000000000E+00 -0.00000000000E+00 -0.63802637041E+02  0.63802637041E+02  0.00000000000E+00 0.  1.
          2    1    1    2  501    0 -0.16787594035E+01  0.11117219147E+01 -0.35850461012E+02  0.35906959214E+02  0.25500000000E-02 0. -1.
         -2    1    1    2    0  501  0.16787594035E+01 -0.11117219147E+01 -0.27887630410E+02  0.27960223446E+02  0.25500000000E-02 0.  1.
<mgrwt>
<rscale>  0 0.20134958E+01</rscale>
<asrwt>0</asrwt>
<pdfrwt beam="1">0</pdfrwt>
<pdfrwt beam="2">0</pdfrwt>
<totfact> 0.32606952E+12</totfact>
</mgrwt>
</event>
<event>
 4    1  0.3281603E+006  0.2021345E+01  0.7546771E-02  0.2966464E+00
         22   -1    0    0    0    0  0.00000000000E+00  0.00000000000E+00  0.82753533852E+02  0.82753533852E+02  0.00000000000E+00 0.  1.
         22   -1    0    0    0    0 -0.00000000000E+00 -0.00000000000E+00 -0.16998957494E+00  0.16998957494E+00  0.00000000000E+00 0. -1.
          2    1    1    2  501    0 -0.70131288843E+00 -0.18957821667E+01  0.76216988174E+02  0.76243787436E+02  0.25500000000E-02 0.  1.
         -2    1    1    2    0  501  0.70131288843E+00  0.18957821667E+01  0.63665561038E+01  0.66797359916E+01  0.25500000000E-02 0. -1.
<mgrwt>
<rscale>  0 0.20213452E+01</rscale>
<asrwt>0</asrwt>
<pdfrwt beam="1">0</pdfrwt>
<pdfrwt beam="2">0</pdfrwt>
<totfact> 0.78285133E+11</totfact>
</mgrwt>
</event>
<event>
 4    1  0.3281603E+006  0.2246216E+01  0.7546771E-02  0.2832224E+00
         22   -1    0    0    0    0  0.00000000000E+00  0.00000000000E+00  0.39443724596E+00  0.39443724596E+00  0.00000000000E+00 0.  1.
         22   -1    0    0    0    0 -0.00000000000E+00 -0.00000000000E+00 -0.18646522174E+02  0.18646522174E+02  0.00000000000E+00 0. -1.
          2    1    1    2  501    0  0.21782289617E+01  0.54844895113E+00 -0.37912146178E+01  0.44066758948E+01  0.25500000000E-02 0.  1.
         -2    1    1    2    0  501 -0.21782289617E+01 -0.54844895113E+00 -0.14460870311E+02  0.14634283526E+02  0.25500000000E-02 0. -1.
<mgrwt>
<rscale>  0 0.22462155E+01</rscale>
<asrwt>0</asrwt>
<pdfrwt beam="1">0</pdfrwt>
<pdfrwt beam="2">0</pdfrwt>
<totfact> 0.21213819E+12</totfact>
</mgrwt>
</event>
<event>
 4    1  0.3281603E+006  0.2254668E+01  0.7546771E-02  0.2827680E+00
         22   -1    0    0    0    0  0.00000000000E+00  0.00000000000E+00  0.49511174377E+00  0.49511174377E+00  0.00000000000E+00 0.  1.
         22   -1    0    0    0    0 -0.00000000000E+00 -0.00000000000E+00 -0.18920925155E+02  0.18920925155E+02  0.00000000000E+00 0. -1.
          2    1    1    2  501    0 -0.77102000214E+00  0.21187378574E+01 -0.26475999895E+01  0.34775442713E+01  0.25500000000E-02 0.  1.
         -2    1    1    2    0  501  0.77102000214E+00 -0.21187378574E+01 -0.15778213422E+02  0.15938492628E+02  0.25500000000E-02 0. -1.
<mgrwt>
<rscale>  0 0.22546681E+01</rscale>
<asrwt>0</asrwt>
<pdfrwt beam="1">0</pdfrwt>
<pdfrwt beam="2">0</pdfrwt>
<totfact> 0.16123031E+12</totfact>
</mgrwt>
</event>
<event>
 4    1  0.3281603E+006  0.2956399E+01  0.7546771E-02  0.2536140E+00
         22   -1    0    0    0    0  0.00000000000E+00  0.00000000000E+00  0.12042367894E+03  0.12042367894E+03  0.00000000000E+00 0.  1.
         22   -1    0    0    0    0 -0.00000000000E+00 -0.00000000000E+00 -0.83001890248E-01  0.83001890248E-01  0.00000000000E+00 0. -1.
          2    1    1    2  501    0 -0.14603828531E+01  0.25705194024E+01  0.81521429981E+02  0.81575019710E+02  0.25500000000E-02 0. -1.
         -2    1    1    2    0  501  0.14603828531E+01 -0.25705194024E+01  0.38819247066E+02  0.38931661118E+02  0.25500000000E-02 0.  1.
<mgrwt>
<rscale>  0 0.29563989E+01</rscale>
<asrwt>0</asrwt>
<pdfrwt beam="1">0</pdfrwt>
<pdfrwt beam="2">0</pdfrwt>
<totfact> 0.10223577E+12</totfact>
</mgrwt>
</event>
<event>
 4    1  0.3281603E+006  0.2450287E+01  0.7546771E-02  0.2730861E+00
         22   -1    0    0    0    0  0.00000000000E+00  0.00000000000E+00  0.11741517457E+02  0.11741517457E+02  0.00000000000E+00 0. -1.
         22   -1    0    0    0    0 -0.00000000000E+00 -0.00000000000E+00 -0.80790246347E+00  0.80790246347E+00  0.00000000000E+00 0.  1.
          2    1    1    2  501    0  0.18066786472E+01 -0.16552376446E+01  0.92684596973E+01  0.95868791093E+01  0.25500000000E-02 0. -1.
         -2    1    1    2    0  501 -0.18066786472E+01  0.16552376446E+01  0.16651552961E+01  0.29625408110E+01  0.25500000000E-02 0.  1.
<mgrwt>
<rscale>  0 0.24502869E+01</rscale>
<asrwt>0</asrwt>
<pdfrwt beam="1">0</pdfrwt>
<pdfrwt beam="2">0</pdfrwt>
<totfact> 0.16650646E+12</totfact>
</mgrwt>
</event>
<event>
 4    1  0.3281603E+006  0.2316380E+01  0.7546771E-02  0.2795469E+00
         22   -1    0    0    0    0  0.00000000000E+00  0.00000000000E+00  0.44140635446E+02  0.44140635446E+02  0.00000000000E+00 0.  1.
         22   -1    0    0    0    0 -0.00000000000E+00 -0.00000000000E+00 -0.85986250459E+00  0.85986250459E+00  0.00000000000E+00 0. -1.
          2    1    1    2  501    0 -0.22907839669E+01  0.34339403117E+00  0.42489652870E+02  0.42552746306E+02  0.25500000000E-02 0.  1.
         -2    1    1    2    0  501  0.22907839669E+01 -0.34339403117E+00  0.79112007099E+00  0.24477516444E+01  0.25500000000E-02 0. -1.
<mgrwt>
<rscale>  0 0.23163802E+01</rscale>
<asrwt>0</asrwt>
<pdfrwt beam="1">0</pdfrwt>
<pdfrwt beam="2">0</pdfrwt>
<totfact> 0.29333038E+11</totfact>
</mgrwt>
</event>
<event>
 4    1  0.3281603E+006  0.2013634E+01  0.7546771E-02  0.2971584E+00
         22   -1    0    0    0    0  0.00000000000E+00  0.00000000000E+00  0.17411533203E+01  0.17411533203E+01  0.00000000000E+00 0. -1.
         22   -1    0    0    0    0 -0.00000000000E+00 -0.00000000000E+00 -0.60519837714E+01  0.60519837714E+01  0.00000000000E+00 0.  1.
          2    1    1    2  501    0  0.15022637733E+01 -0.13408645877E+01  0.90086562887E+00  0.22059645670E+01  0.25500000000E-02 0. -1.
         -2    1    1    2    0  501 -0.15022637733E+01  0.13408645877E+01 -0.52116960800E+01  0.55871725246E+01  0.25500000000E-02 0.  1.
<mgrwt>
<rscale>  0 0.20136337E+01</rscale>
<asrwt>0</asrwt>
<pdfrwt beam="1">0</pdfrwt>
<pdfrwt beam="2">0</pdfrwt>
<totfact> 0.15341049E+12</totfact>
</mgrwt>
</event>
<event>
 4    1  0.3281603E+006  0.3078328E+01  0.7546771E-02  0.2497993E+00
         22   -1    0    0    0    0  0.00000000000E+00  0.00000000000E+00  0.24164725148E+01  0.24164725148E+01  0.00000000000E+00 0.  1.
         22   -1    0    0    0    0 -0.00000000000E+00 -0.00000000000E+00 -0.40016480400E+01  0.40016480400E+01  0.00000000000E+00 0. -1.
          2    1    1    2  501    0 -0.21666220400E+01 -0.21867431450E+01 -0.33832195731E+00  0.30968637192E+01  0.25500000000E-02 0.  1.
         -2    1    1    2    0  501  0.21666220400E+01  0.21867431450E+01 -0.12468535679E+01  0.33212568357E+01  0.25500000000E-02 0. -1.
<mgrwt>
<rscale>  0 0.30783280E+01</rscale>
<asrwt>0</asrwt>
<pdfrwt beam="1">0</pdfrwt>
<pdfrwt beam="2">0</pdfrwt>
<totfact> 0.17127324E+12</totfact>
</mgrwt>
</event>
<event>
 4    1  0.3281603E+006  0.3047402E+01  0.7546771E-02  0.2507410E+00
         22   -1    0    0    0    0  0.00000000000E+00  0.00000000000E+00  0.51937909193E+01  0.51937909193E+01  0.00000000000E+00 0. -1.
         22   -1    0    0    0    0 -0.00000000000E+00 -0.00000000000E+00 -0.18879680755E+01  0.18879680755E+01  0.00000000000E+00 0.  1.
          2    1    1    2  501    0  0.13966086865E+01 -0.27085298231E+01  0.24675752155E+01  0.39211711991E+01  0.25500000000E-02 0. -1.
         -2    1    1    2    0  501 -0.13966086865E+01  0.27085298231E+01  0.83824762831E+00  0.31605877958E+01  0.25500000000E-02 0.  1.
<mgrwt>
<rscale>  0 0.30474015E+01</rscale>
<asrwt>0</asrwt>
<pdfrwt beam="1">0</pdfrwt>
<pdfrwt beam="2">0</pdfrwt>
<totfact> 0.16756903E+12</totfact>
</mgrwt>
</event>
<event>
 4    1  0.3281603E+006  0.2131941E+01  0.7546771E-02  0.2897022E+00
         22   -1    0    0    0    0  0.00000000000E+00  0.00000000000E+00  0.45114799928E+01  0.45114799928E+01  0.00000000000E+00 0. -1.
         22   -1    0    0    0    0 -0.00000000000E+00 -0.00000000000E+00 -0.10137460250E+01  0.10137460250E+01  0.00000000000E+00 0.  1.
          2    1    1    2  501    0 -0.13130197159E+01 -0.16796270372E+01  0.19662609820E+01  0.29002338716E+01  0.25500000000E-02 0.  1.
         -2    1    1    2    0  501  0.13130197159E+01  0.16796270372E+01  0.15314729858E+01  0.26249921461E+01  0.25500000000E-02 0. -1.
<mgrwt>
<rscale>  0 0.21319414E+01</rscale>
<asrwt>0</asrwt>
<pdfrwt beam="1">0</pdfrwt>
<pdfrwt beam="2">0</pdfrwt>
<totfact> 0.40438923E+12</totfact>
</mgrwt>
</event>
<event>
 4    1  0.3281603E+006  0.2119745E+01  0.7546771E-02  0.2904335E+00
         22   -1    0    0    0    0  0.00000000000E+00  0.00000000000E+00  0.80172759233E-01  0.80172759233E-01  0.00000000000E+00 0.  1.
         22   -1    0    0    0    0 -0.00000000000E+00 -0.00000000000E+00 -0.56260618866E+02  0.56260618866E+02  0.00000000000E+00 0. -1.
          2    1    1    2  501    0 -0.20197688698E+01 -0.64330819388E+00 -0.26348086232E+02  0.26433217101E+02  0.25500000000E-02 0.  1.
         -2    1    1    2    0  501  0.20197688698E+01  0.64330819388E+00 -0.29832359874E+02  0.29907574524E+02  0.25500000000E-02 0. -1.
<mgrwt>
<rscale>  0 0.21197448E+01</rscale>
<asrwt>0</asrwt>
<pdfrwt beam="1">0</pdfrwt>
<pdfrwt beam="2">0</pdfrwt>
<totfact> 0.30377792E+12</totfact>
</mgrwt>
</event>
<event>
 4    1  0.3281603E+006  0.3773893E+01  0.7546771E-02  0.2322717E+00
         22   -1    0    0    0    0  0.00000000000E+00  0.00000000000E+00  0.59001647142E+01  0.59001647142E+01  0.00000000000E+00 0.  1.
         22   -1    0    0    0    0 -0.00000000000E+00 -0.00000000000E+00 -0.24924530052E+01  0.24924530052E+01  0.00000000000E+00 0. -1.
          2    1    1    2  501    0  0.33888826634E+01 -0.16606437882E+01  0.24489305592E+01  0.44988366145E+01  0.25500000000E-02 0.  1.
         -2    1    1    2    0  501 -0.33888826634E+01  0.16606437882E+01  0.95878114982E+00  0.38937811050E+01  0.25500000000E-02 0. -1.
<mgrwt>
<rscale>  0 0.37738932E+01</rscale>
<asrwt>0</asrwt>
<pdfrwt beam="1">0</pdfrwt>
<pdfrwt beam="2">0</pdfrwt>
<totfact> 0.10436540E+12</totfact>
</mgrwt>
</event>
<event>
 4    1  0.3281603E+006  0.2044464E+01  0.7546771E-02  0.2951344E+00
         22   -1    0    0    0    0  0.00000000000E+00  0.00000000000E+00  0.34416453741E+01  0.34416453741E+01  0.00000000000E+00 0.  1.
         22   -1    0    0    0    0 -0.00000000000E+00 -0.00000000000E+00 -0.13584014424E+01  0.13584014424E+01  0.00000000000E+00 0. -1.
          2    1    1    2  501    0  0.72598768153E+00 -0.19112215120E+01  0.18228074451E+01  0.27390617492E+01  0.25500000000E-02 0. -1.
         -2    1    1    2    0  501 -0.72598768153E+00  0.19112215120E+01  0.26043648655E+00  0.20609850673E+01  0.25500000000E-02 0.  1.
<mgrwt>
<rscale>  0 0.20444638E+01</rscale>
<asrwt>0</asrwt>
<pdfrwt beam="1">0</pdfrwt>
<pdfrwt beam="2">0</pdfrwt>
<totfact> 0.39765249E+12</totfact>
</mgrwt>
</event>
<event>
 4    1  0.3281603E+006  0.2370404E+01  0.7546771E-02  0.2768577E+00
         22   -1    0    0    0    0  0.00000000000E+00  0.00000000000E+00  0.45870893338E+00  0.45870893338E+00  0.00000000000E+00 0. -1.
         22   -1    0    0    0    0 -0.00000000000E+00 -0.00000000000E+00 -0.14496455878E+02  0.14496455878E+02  0.00000000000E+00 0.  1.
          2    1    1    2  501    0  0.21727942275E+01  0.94751028468E+00 -0.40747457260E+01  0.47140608533E+01  0.25500000000E-02 0. -1.
         -2    1    1    2    0  501 -0.21727942275E+01 -0.94751028468E+00 -0.99630012183E+01  0.10241103958E+02  0.25500000000E-02 0.  1.
<mgrwt>
<rscale>  0 0.23704044E+01</rscale>
<asrwt>0</asrwt>
<pdfrwt beam="1">0</pdfrwt>
<pdfrwt beam="2">0</pdfrwt>
<totfact> 0.24427028E+12</totfact>
</mgrwt>
</event>
<event>
 4    1  0.3281603E+006  0.2183909E+01  0.7546771E-02  0.2866747E+00
         22   -1    0    0    0    0  0.00000000000E+00  0.00000000000E+00  0.10216809883E+01  0.10216809883E+01  0.00000000000E+00 0.  1.
         22   -1    0    0    0    0 -0.00000000000E+00 -0.00000000000E+00 -0.71675436815E+01  0.71675436815E+01  0.00000000000E+00 0. -1.
          2    1    1    2  501    0  0.85472859131E+00 -0.20096996416E+01 -0.65504186890E+00  0.22800306942E+01  0.25500000000E-02 0.  1.
         -2    1    1    2    0  501 -0.85472859131E+00  0.20096996416E+01 -0.54908208243E+01  0.59091939756E+01  0.25500000000E-02 0. -1.
<mgrwt>
<rscale>  0 0.21839094E+01</rscale>
<asrwt>0</asrwt>
<pdfrwt beam="1">0</pdfrwt>
<pdfrwt beam="2">0</pdfrwt>
<totfact> 0.23119030E+12</totfact>
</mgrwt>
</event>
<event>
 4    1  0.3281603E+006  0.5455111E+01  0.7546771E-02  0.2072302E+00
         22   -1    0    0    0    0  0.00000000000E+00  0.00000000000E+00  0.18524169938E+02  0.18524169938E+02  0.00000000000E+00 0.  1.
         22   -1    0    0    0    0 -0.00000000000E+00 -0.00000000000E+00 -0.70632190064E+01  0.70632190064E+01  0.00000000000E+00 0. -1.
          2    1    1    2  501    0 -0.84773625623E+00 -0.53888378912E+01  0.16975547523E+02  0.17830520205E+02  0.25500000000E-02 0.  1.
         -2    1    1    2    0  501  0.84773625623E+00  0.53888378912E+01 -0.55145965911E+01  0.77568687396E+01  0.25500000000E-02 0. -1.
<mgrwt>
<rscale>  0 0.54551111E+01</rscale>
<asrwt>0</asrwt>
<pdfrwt beam="1">0</pdfrwt>
<pdfrwt beam="2">0</pdfrwt>
<totfact> 0.76231367E+10</totfact>
</mgrwt>
</event>
<event>
 4    1  0.3281603E+006  0.2022293E+01  0.7546771E-02  0.2965838E+00
         22   -1    0    0    0    0  0.00000000000E+00  0.00000000000E+00  0.15047068262E+01  0.15047068262E+01  0.00000000000E+00 0. -1.
         22   -1    0    0    0    0 -0.00000000000E+00 -0.00000000000E+00 -0.27179224119E+01  0.27179224119E+01  0.00000000000E+00 0.  1.
          2    1    1    2  501    0 -0.20085150072E+01  0.23564931415E+00 -0.60389125304E+00  0.21105341223E+01  0.25500000000E-02 0.  1.
         -2    1    1    2    0  501  0.20085150072E+01 -0.23564931415E+00 -0.60932433273E+00  0.21120951158E+01  0.25500000000E-02 0. -1.
<mgrwt>
<rscale>  0 0.20222932E+01</rscale>
<asrwt>0</asrwt>
<pdfrwt beam="1">0</pdfrwt>
<pdfrwt beam="2">0</pdfrwt>
<totfact> 0.46587088E+12</totfact>
</mgrwt>
</event>
<event>
 4    1  0.3281603E+006  0.2694883E+01  0.7546771E-02  0.2628386E+00
         22   -1    0    0    0    0  0.00000000000E+00  0.00000000000E+00  0.92014503856E+00  0.92014503856E+00  0.00000000000E+00 0.  1.
         22   -1    0    0    0    0 -0.00000000000E+00 -0.00000000000E+00 -0.11387261027E+02  0.11387261027E+02  0.00000000000E+00 0. -1.
          2    1    1    2  501    0  0.13016164323E+01 -0.23596993708E+01 -0.18245687784E+01  0.32544499054E+01  0.25500000000E-02 0.  1.
         -2    1    1    2    0  501 -0.13016164323E+01  0.23596993708E+01 -0.86425472101E+01  0.90529561602E+01  0.25500000000E-02 0. -1.
<mgrwt>
<rscale>  0 0.26948827E+01</rscale>
<asrwt>0</asrwt>
<pdfrwt beam="1">0</pdfrwt>
<pdfrwt beam="2">0</pdfrwt>
<totfact> 0.14903403E+12</totfact>
</mgrwt>
</event>
<event>
 4    1  0.3281603E+006  0.2398491E+01  0.7546771E-02  0.2755047E+00
         22   -1    0    0    0    0  0.00000000000E+00  0.00000000000E+00  0.54285899287E+01  0.54285899287E+01  0.00000000000E+00 0. -1.
         22   -1    0    0    0    0 -0.00000000000E+00 -0.00000000000E+00 -0.11716101922E+01  0.11716101922E+01  0.00000000000E+00 0.  1.
          2    1    1    2  501    0  0.23670073976E+01  0.38733391053E+00  0.31483515734E+01  0.39578877840E+01  0.25500000000E-02 0. -1.
         -2    1    1    2    0  501 -0.23670073976E+01 -0.38733391053E+00  0.11086281632E+01  0.26423123368E+01  0.25500000000E-02 0.  1.
<mgrwt>
<rscale>  0 0.23984908E+01</rscale>
<asrwt>0</asrwt>
<pdfrwt beam="1">0</pdfrwt>
<pdfrwt beam="2">0</pdfrwt>
<totfact> 0.27529722E+12</totfact>
</mgrwt>
</event>
<event>
 4    1  0.3281603E+006  0.2541702E+01  0.7546771E-02  0.2690426E+00
         22   -1    0    0    0    0  0.00000000000E+00  0.00000000000E+00  0.28475416278E+02  0.28475416278E+02  0.00000000000E+00 0.  1.
         22   -1    0    0    0    0 -0.00000000000E+00 -0.00000000000E+00 -0.48826654371E+00  0.48826654371E+00  0.00000000000E+00 0. -1.
          2    1    1    2  501    0  0.12914547991E+01  0.21891526432E+01  0.24589630839E+02  0.24720643116E+02  0.25500000000E-02 0.  1.
         -2    1    1    2    0  501 -0.12914547991E+01 -0.21891526432E+01  0.33975188953E+01  0.42430397052E+01  0.25500000000E-02 0. -1.
<mgrwt>
<rscale>  0 0.25417024E+01</rscale>
<asrwt>0</asrwt>
<pdfrwt beam="1">0</pdfrwt>
<pdfrwt beam="2">0</pdfrwt>
<totfact> 0.97994440E+11</totfact>
</mgrwt>
</event>
<event>
 4    1  0.3281603E+006  0.2061840E+01  0.7546771E-02  0.2940197E+00
         22   -1    0    0    0    0  0.00000000000E+00  0.00000000000E+00  0.83176522262E+01  0.83176522262E+01  0.00000000000E+00 0. -1.
         22   -1    0    0    0    0 -0.00000000000E+00 -0.00000000000E+00 -0.60608805680E+00  0.60608805680E+00  0.00000000000E+00 0.  1.
          2    1    1    2  501    0  0.41721893282E+00  0.20191845691E+01  0.20894406502E+01  0.29354636252E+01  0.25500000000E-02 0.  1.
         -2    1    1    2    0  501 -0.41721893282E+00 -0.20191845691E+01  0.56221235193E+01  0.59882766578E+01  0.25500000000E-02 0. -1.
<mgrwt>
<rscale>  0 0.20618401E+01</rscale>
<asrwt>0</asrwt>
<pdfrwt beam="1">0</pdfrwt>
<pdfrwt beam="2">0</pdfrwt>
<totfact> 0.35020784E+12</totfact>
</mgrwt>
</event>
<event>
 4    1  0.3281603E+006  0.2216315E+01  0.7546771E-02  0.2848560E+00
         22   -1    0    0    0    0  0.00000000000E+00  0.00000000000E+00  0.76944575208E+01  0.76944575208E+01  0.00000000000E+00 0. -1.
         22   -1    0    0    0    0 -0.00000000000E+00 -0.00000000000E+00 -0.80703709097E+00  0.80703709097E+00  0.00000000000E+00 0.  1.
          2    1    1    2  501    0 -0.19399780376E+01  0.10716955034E+01  0.53868766882E+01  0.58249886691E+01  0.25500000000E-02 0. -1.
         -2    1    1    2    0  501  0.19399780376E+01 -0.10716955034E+01  0.15005437416E+01  0.26765059427E+01  0.25500000000E-02 0.  1.
<mgrwt>
<rscale>  0 0.22163151E+01</rscale>
<asrwt>0</asrwt>
<pdfrwt beam="1">0</pdfrwt>
<pdfrwt beam="2">0</pdfrwt>
<totfact> 0.27785456E+12</totfact>
</mgrwt>
</event>
<event>
 4    1  0.3281603E+006  0.3001377E+01  0.7546771E-02  0.2521745E+00
         22   -1    0    0    0    0  0.00000000000E+00  0.00000000000E+00  0.27186767580E+01  0.27186767580E+01  0.00000000000E+00 0.  1.
         22   -1    0    0    0    0 -0.00000000000E+00 -0.00000000000E+00 -0.33172365782E+01  0.33172365782E+01  0.00000000000E+00 0. -1.
          2    1    1    2  501    0  0.25129190568E+01  0.16411874578E+01 -0.19764026604E+00  0.30078774301E+01  0.25500000000E-02 0.  1.
         -2    1    1    2    0  501 -0.25129190568E+01 -0.16411874578E+01 -0.40091955418E+00  0.30280359061E+01  0.25500000000E-02 0. -1.
<mgrwt>
<rscale>  0 0.30013772E+01</rscale>
<asrwt>0</asrwt>
<pdfrwt beam="1">0</pdfrwt>
<pdfrwt beam="2">0</pdfrwt>
<totfact> 0.18610390E+12</totfact>
</mgrwt>
</event>
<event>
 4    1  0.3281603E+006  0.2089201E+01  0.7546771E-02  0.2923011E+00
         22   -1    0    0    0    0  0.00000000000E+00  0.00000000000E+00  0.90388917380E+00  0.90388917380E+00  0.00000000000E+00 0.  1.
         22   -1    0    0    0    0 -0.00000000000E+00 -0.00000000000E+00 -0.48350140506E+01  0.48350140506E+01  0.00000000000E+00 0. -1.
          2    1    1    2  501    0 -0.20875717734E+01  0.82446109245E-01 -0.18632411785E+01  0.27993619741E+01  0.25500000000E-02 0. -1.
         -2    1    1    2    0  501  0.20875717734E+01 -0.82446109245E-01 -0.20678836984E+01  0.29395412504E+01  0.25500000000E-02 0.  1.
<mgrwt>
<rscale>  0 0.20892007E+01</rscale>
<asrwt>0</asrwt>
<pdfrwt beam="1">0</pdfrwt>
<pdfrwt beam="2">0</pdfrwt>
<totfact> 0.42470952E+12</totfact>
</mgrwt>
</event>
<event>
 4    1  0.3281603E+006  0.4858318E+01  0.7546771E-02  0.2140305E+00
         22   -1    0    0    0    0  0.00000000000E+00  0.00000000000E+00  0.13773121340E+02  0.13773121340E+02  0.00000000000E+00 0. -1.
         22   -1    0    0    0    0 -0.00000000000E+00 -0.00000000000E+00 -0.20472267814E+01  0.20472267814E+01  0.00000000000E+00 0.  1.
          2    1    1    2  501    0 -0.47222301185E+01 -0.11418371621E+01  0.90556334397E+01  0.10276563282E+02  0.25500000000E-02 0. -1.
         -2    1    1    2    0  501  0.47222301185E+01  0.11418371621E+01  0.26702611189E+01  0.55437848391E+01  0.25500000000E-02 0.  1.
<mgrwt>
<rscale>  0 0.48583182E+01</rscale>
<asrwt>0</asrwt>
<pdfrwt beam="1">0</pdfrwt>
<pdfrwt beam="2">0</pdfrwt>
<totfact> 0.47140360E+11</totfact>
</mgrwt>
</event>
<event>
 4    1  0.3281603E+006  0.3165189E+01  0.7546771E-02  0.2472423E+00
         22   -1    0    0    0    0  0.00000000000E+00  0.00000000000E+00  0.27779043952E+01  0.27779043952E+01  0.00000000000E+00 0.  1.
         22   -1    0    0    0    0 -0.00000000000E+00 -0.00000000000E+00 -0.68121435202E+01  0.68121435202E+01  0.00000000000E+00 0. -1.
          2    1    1    2  501    0  0.29977282593E+01  0.10158935660E+01  0.12722201210E+01  0.34112996047E+01  0.25500000000E-02 0.  1.
         -2    1    1    2    0  501 -0.29977282593E+01 -0.10158935660E+01 -0.53064592460E+01  0.61787483107E+01  0.25500000000E-02 0. -1.
<mgrwt>
<rscale>  0 0.31651889E+01</rscale>
<asrwt>0</asrwt>
<pdfrwt beam="1">0</pdfrwt>
<pdfrwt beam="2">0</pdfrwt>
<totfact> 0.77496992E+11</totfact>
</mgrwt>
</event>
<event>
 4    1  0.3281603E+006  0.2090077E+01  0.7546771E-02  0.2922468E+00
         22   -1    0    0    0    0  0.00000000000E+00  0.00000000000E+00  0.36858510809E+01  0.36858510809E+01  0.00000000000E+00 0.  1.
         22   -1    0    0    0    0 -0.00000000000E+00 -0.00000000000E+00 -0.77651335076E+01  0.77651335076E+01  0.00000000000E+00 0. -1.
          2    1    1    2  501    0 -0.15613959752E+01  0.13894085775E+01  0.32308315897E+01  0.38479465758E+01  0.25500000000E-02 0.  1.
         -2    1    1    2    0  501  0.15613959752E+01 -0.13894085775E+01 -0.73101140164E+01  0.76030380126E+01  0.25500000000E-02 0. -1.
<mgrwt>
<rscale>  0 0.20900766E+01</rscale>
<asrwt>0</asrwt>
<pdfrwt beam="1">0</pdfrwt>
<pdfrwt beam="2">0</pdfrwt>
<totfact> 0.47580563E+11</totfact>
</mgrwt>
</event>
<event>
 4    1  0.3281603E+006  0.3166691E+01  0.7546771E-02  0.2471992E+00
         22   -1    0    0    0    0  0.00000000000E+00  0.00000000000E+00  0.86137341959E+00  0.86137341959E+00  0.00000000000E+00 0.  1.
         22   -1    0    0    0    0 -0.00000000000E+00 -0.00000000000E+00 -0.18314358443E+02  0.18314358443E+02  0.00000000000E+00 0. -1.
          2    1    1    2  501    0  0.24188749359E+01 -0.20437628501E+01 -0.29392378387E+01  0.43205379431E+01  0.25500000000E-02 0.  1.
         -2    1    1    2    0  501 -0.24188749359E+01  0.20437628501E+01 -0.14513747184E+02  0.14855193919E+02  0.25500000000E-02 0. -1.
<mgrwt>
<rscale>  0 0.31666906E+01</rscale>
<asrwt>0</asrwt>
<pdfrwt beam="1">0</pdfrwt>
<pdfrwt beam="2">0</pdfrwt>
<totfact> 0.89611117E+11</totfact>
</mgrwt>
</event>
<event>
 4    1  0.3281603E+006  0.2850370E+01  0.7546771E-02  0.2571689E+00
         22   -1    0    0    0    0  0.00000000000E+00  0.00000000000E+00  0.19689482185E+01  0.19689482185E+01  0.00000000000E+00 0.  1.
         22   -1    0    0    0    0 -0.00000000000E+00 -0.00000000000E+00 -0.47091424132E+01  0.47091424132E+01  0.00000000000E+00 0. -1.
          2    1    1    2  501    0 -0.25996487109E+01  0.11689446997E+01 -0.25447251507E+01  0.38210257427E+01  0.25500000000E-02 0. -1.
         -2    1    1    2    0  501  0.25996487109E+01 -0.11689446997E+01 -0.19546904400E+00  0.28570648891E+01  0.25500000000E-02 0.  1.
<mgrwt>
<rscale>  0 0.28503704E+01</rscale>
<asrwt>0</asrwt>
<pdfrwt beam="1">0</pdfrwt>
<pdfrwt beam="2">0</pdfrwt>
<totfact> 0.17924693E+12</totfact>
</mgrwt>
</event>
<event>
 4    1  0.3281603E+006  0.2433159E+01  0.7546771E-02  0.2738752E+00
         22   -1    0    0    0    0  0.00000000000E+00  0.00000000000E+00  0.38746320633E+00  0.38746320633E+00  0.00000000000E+00 0. -1.
         22   -1    0    0    0    0 -0.00000000000E+00 -0.00000000000E+00 -0.20870398159E+02  0.20870398159E+02  0.00000000000E+00 0.  1.
          2    1    1    2  501    0 -0.27226649938E+00 -0.24178767632E+01 -0.47401964620E+01  0.53282010181E+01  0.25500000000E-02 0. -1.
         -2    1    1    2    0  501  0.27226649938E+00  0.24178767632E+01 -0.15742738491E+02  0.15929660347E+02  0.25500000000E-02 0.  1.
<mgrwt>
<rscale>  0 0.24331592E+01</rscale>
<asrwt>0</asrwt>
<pdfrwt beam="1">0</pdfrwt>
<pdfrwt beam="2">0</pdfrwt>
<totfact> 0.18809187E+12</totfact>
</mgrwt>
</event>
<event>
 4    1  0.3281603E+006  0.2593373E+01  0.7546771E-02  0.2668743E+00
         22   -1    0    0    0    0  0.00000000000E+00  0.00000000000E+00  0.27022409059E+01  0.27022409059E+01  0.00000000000E+00 0. -1.
         22   -1    0    0    0    0 -0.00000000000E+00 -0.00000000000E+00 -0.24894821068E+01  0.24894821068E+01  0.00000000000E+00 0.  1.
          2    1    1    2  501    0 -0.20583099663E+01  0.15776365258E+01  0.66383873268E-01  0.25942224743E+01  0.25500000000E-02 0.  1.
         -2    1    1    2    0  501  0.20583099663E+01 -0.15776365258E+01  0.14637492582E+00  0.25975005383E+01  0.25500000000E-02 0. -1.
<mgrwt>
<rscale>  0 0.25933730E+01</rscale>
<asrwt>0</asrwt>
<pdfrwt beam="1">0</pdfrwt>
<pdfrwt beam="2">0</pdfrwt>
<totfact> 0.26200345E+12</totfact>
</mgrwt>
</event>
<event>
 4    1  0.3281603E+006  0.5473433E+01  0.7546771E-02  0.2070400E+00
         22   -1    0    0    0    0  0.00000000000E+00  0.00000000000E+00  0.11007295113E+02  0.11007295113E+02  0.00000000000E+00 0.  1.
         22   -1    0    0    0    0 -0.00000000000E+00 -0.00000000000E+00 -0.33813212492E+01  0.33813212492E+01  0.00000000000E+00 0. -1.
          2    1    1    2  501    0 -0.17149159130E+01 -0.51978382849E+01  0.69905619093E+01  0.88784245075E+01  0.25500000000E-02 0.  1.
         -2    1    1    2    0  501  0.17149159130E+01  0.51978382849E+01  0.63541195486E+00  0.55101918550E+01  0.25500000000E-02 0. -1.
<mgrwt>
<rscale>  0 0.54734327E+01</rscale>
<asrwt>0</asrwt>
<pdfrwt beam="1">0</pdfrwt>
<pdfrwt beam="2">0</pdfrwt>
<totfact> 0.34547835E+11</totfact>
</mgrwt>
</event>
<event>
 4    1  0.3281603E+006  0.4748373E+01  0.7546771E-02  0.2154293E+00
         22   -1    0    0    0    0  0.00000000000E+00  0.00000000000E+00  0.12391981452E+02  0.12391981452E+02  0.00000000000E+00 0.  1.
         22   -1    0    0    0    0 -0.00000000000E+00 -0.00000000000E+00 -0.24004512691E+01  0.24004512691E+01  0.00000000000E+00 0. -1.
          2    1    1    2  501    0 -0.38096678997E+01 -0.28343380504E+01  0.86343951310E+01  0.98539244706E+01  0.25500000000E-02 0.  1.
         -2    1    1    2    0  501  0.38096678997E+01  0.28343380504E+01  0.13571350520E+01  0.49385082507E+01  0.25500000000E-02 0. -1.
<mgrwt>
<rscale>  0 0.47483732E+01</rscale>
<asrwt>0</asrwt>
<pdfrwt beam="1">0</pdfrwt>
<pdfrwt beam="2">0</pdfrwt>
<totfact> 0.44601588E+11</totfact>
</mgrwt>
</event>
<event>
 4    1  0.3281603E+006  0.4535289E+01  0.7546771E-02  0.2185332E+00
         22   -1    0    0    0    0  0.00000000000E+00  0.00000000000E+00  0.13060971668E+02  0.13060971668E+02  0.00000000000E+00 0. -1.
         22   -1    0    0    0    0 -0.00000000000E+00 -0.00000000000E+00 -0.16564256567E+01  0.16564256567E+01  0.00000000000E+00 0.  1.
          2    1    1    2  501    0 -0.47692630076E+00 -0.45101421735E+01  0.40690672505E+01  0.60931236581E+01  0.25500000000E-02 0.  1.
         -2    1    1    2    0  501  0.47692630076E+00  0.45101421735E+01  0.73354787606E+01  0.86242736663E+01  0.25500000000E-02 0. -1.
<mgrwt>
<rscale>  0 0.45352891E+01</rscale>
<asrwt>0</asrwt>
<pdfrwt beam="1">0</pdfrwt>
<pdfrwt beam="2">0</pdfrwt>
<totfact> 0.64257983E+11</totfact>
</mgrwt>
</event>
<event>
 4    1  0.3281603E+006  0.2749673E+01  0.7546771E-02  0.2607741E+00
         22   -1    0    0    0    0  0.00000000000E+00  0.00000000000E+00  0.14845123131E+02  0.14845123131E+02  0.00000000000E+00 0. -1.
         22   -1    0    0    0    0 -0.00000000000E+00 -0.00000000000E+00 -0.51200009514E+00  0.51200009514E+00  0.00000000000E+00 0.  1.
          2    1    1    2  501    0  0.27432186194E+01 -0.18826953445E+00  0.77236259439E+01  0.81984814469E+01  0.25500000000E-02 0. -1.
         -2    1    1    2    0  501 -0.27432186194E+01  0.18826953445E+00  0.66094970915E+01  0.71586417788E+01  0.25500000000E-02 0.  1.
<mgrwt>
<rscale>  0 0.27496728E+01</rscale>
<asrwt>0</asrwt>
<pdfrwt beam="1">0</pdfrwt>
<pdfrwt beam="2">0</pdfrwt>
<totfact> 0.20956344E+12</totfact>
</mgrwt>
</event>
<event>
 4    1  0.3281603E+006  0.2541130E+01  0.7546771E-02  0.2690670E+00
         22   -1    0    0    0    0  0.00000000000E+00  0.00000000000E+00  0.24187247087E+01  0.24187247087E+01  0.00000000000E+00 0. -1.
         22   -1    0    0    0    0 -0.00000000000E+00 -0.00000000000E+00 -0.27879643814E+01  0.27879643814E+01  0.00000000000E+00 0.  1.
          2    1    1    2  501    0 -0.61480304348E+00 -0.24656347929E+01  0.35149544227E+00  0.25653251768E+01  0.25500000000E-02 0. -1.
         -2    1    1    2    0  501  0.61480304348E+00  0.24656347929E+01 -0.72073511493E+00  0.26413639133E+01  0.25500000000E-02 0.  1.
<mgrwt>
<rscale>  0 0.25411305E+01</rscale>
<asrwt>0</asrwt>
<pdfrwt beam="1">0</pdfrwt>
<pdfrwt beam="2">0</pdfrwt>
<totfact> 0.26124906E+12</totfact>
</mgrwt>
</event>
<event>
 4    1  0.3281603E+006  0.3421207E+01  0.7546771E-02  0.2403787E+00
         22   -1    0    0    0    0  0.00000000000E+00  0.00000000000E+00  0.23873180239E+01  0.23873180239E+01  0.00000000000E+00 0.  1.
         22   -1    0    0    0    0 -0.00000000000E+00 -0.00000000000E+00 -0.59957166999E+01  0.59957166999E+01  0.00000000000E+00 0. -1.
          2    1    1    2  501    0 -0.30731773073E+01  0.15034067501E+01 -0.35937118301E+01  0.49617962310E+01  0.25500000000E-02 0. -1.
         -2    1    1    2    0  501  0.30731773073E+01 -0.15034067501E+01 -0.14686845874E-01  0.34212384927E+01  0.25500000000E-02 0.  1.
<mgrwt>
<rscale>  0 0.34212070E+01</rscale>
<asrwt>0</asrwt>
<pdfrwt beam="1">0</pdfrwt>
<pdfrwt beam="2">0</pdfrwt>
<totfact> 0.10764938E+12</totfact>
</mgrwt>
</event>
<event>
 4    1  0.3281603E+006  0.2064120E+01  0.7546771E-02  0.2938748E+00
         22   -1    0    0    0    0  0.00000000000E+00  0.00000000000E+00  0.14923479138E+01  0.14923479138E+01  0.00000000000E+00 0.  1.
         22   -1    0    0    0    0 -0.00000000000E+00 -0.00000000000E+00 -0.32900752624E+01  0.32900752624E+01  0.00000000000E+00 0. -1.
          2    1    1    2  501    0 -0.87624889682E+00 -0.18688961270E+01 -0.29266747605E-01  0.20643274711E+01  0.25500000000E-02 0.  1.
         -2    1    1    2    0  501  0.87624889682E+00  0.18688961270E+01 -0.17684606010E+01  0.27180957051E+01  0.25500000000E-02 0. -1.
<mgrwt>
<rscale>  0 0.20641200E+01</rscale>
<asrwt>0</asrwt>
<pdfrwt beam="1">0</pdfrwt>
<pdfrwt beam="2">0</pdfrwt>
<totfact> 0.37624887E+12</totfact>
</mgrwt>
</event>
<event>
 4    1  0.3281603E+006  0.4337710E+01  0.7546771E-02  0.2217042E+00
         22   -1    0    0    0    0  0.00000000000E+00  0.00000000000E+00  0.48956839766E+02  0.48956839766E+02  0.00000000000E+00 0. -1.
         22   -1    0    0    0    0 -0.00000000000E+00 -0.00000000000E+00 -0.38451712624E+00  0.38451712624E+00  0.00000000000E+00 0.  1.
          2    1    1    2  501    0  0.26660557634E+01  0.34216764307E+01  0.24826011217E+02  0.25202114244E+02  0.25500000000E-02 0.  1.
         -2    1    1    2    0  501 -0.26660557634E+01 -0.34216764307E+01  0.23746311422E+02  0.24139242647E+02  0.25500000000E-02 0. -1.
<mgrwt>
<rscale>  0 0.43377102E+01</rscale>
<asrwt>0</asrwt>
<pdfrwt beam="1">0</pdfrwt>
<pdfrwt beam="2">0</pdfrwt>
<totfact> 0.63671994E+11</totfact>
</mgrwt>
</event>
<event>
 4    1  0.3281603E+006  0.2072248E+01  0.7546771E-02  0.2933608E+00
         22   -1    0    0    0    0  0.00000000000E+00  0.00000000000E+00  0.45654556049E+01  0.45654556049E+01  0.00000000000E+00 0.  1.
         22   -1    0    0    0    0 -0.00000000000E+00 -0.00000000000E+00 -0.16682389454E+01  0.16682389454E+01  0.00000000000E+00 0. -1.
          2    1    1    2  501    0  0.20713238589E+01 -0.61826326860E-01  0.35070948340E+01  0.40735642502E+01  0.25500000000E-02 0.  1.
         -2    1    1    2    0  501 -0.20713238589E+01  0.61826326860E-01 -0.60987817460E+00  0.21601303001E+01  0.25500000000E-02 0. -1.
<mgrwt>
<rscale>  0 0.20722479E+01</rscale>
<asrwt>0</asrwt>
<pdfrwt beam="1">0</pdfrwt>
<pdfrwt beam="2">0</pdfrwt>
<totfact> 0.22513844E+12</totfact>
</mgrwt>
</event>
<event>
 4    1  0.3281603E+006  0.2270489E+01  0.7546771E-02  0.2819264E+00
         22   -1    0    0    0    0  0.00000000000E+00  0.00000000000E+00  0.64364480410E+01  0.64364480410E+01  0.00000000000E+00 0.  1.
         22   -1    0    0    0    0 -0.00000000000E+00 -0.00000000000E+00 -0.81460695170E+00  0.81460695170E+00  0.00000000000E+00 0. -1.
          2    1    1    2  501    0 -0.14027754832E+01  0.17853110276E+01  0.23410813059E+01  0.32612547746E+01  0.25500000000E-02 0. -1.
         -2    1    1    2    0  501  0.14027754832E+01 -0.17853110276E+01  0.32807597834E+01  0.39898002181E+01  0.25500000000E-02 0.  1.
<mgrwt>
<rscale>  0 0.22704892E+01</rscale>
<asrwt>0</asrwt>
<pdfrwt beam="1">0</pdfrwt>
<pdfrwt beam="2">0</pdfrwt>
<totfact> 0.34038081E+12</totfact>
</mgrwt>
</event>
<event>
 4    1  0.3281603E+006  0.2126975E+01  0.7546771E-02  0.2899990E+00
         22   -1    0    0    0    0  0.00000000000E+00  0.00000000000E+00  0.24696694832E+00  0.24696694832E+00  0.00000000000E+00 0. -1.
         22   -1    0    0    0    0 -0.00000000000E+00 -0.00000000000E+00 -0.19019119947E+02  0.19019119947E+02  0.00000000000E+00 0.  1.
          2    1    1    2  501    0  0.16709009213E+01  0.13160953132E+01 -0.75369750952E+01  0.78313483418E+01  0.25500000000E-02 0.  1.
         -2    1    1    2    0  501 -0.16709009213E+01 -0.13160953132E+01 -0.11235177904E+02  0.11434738554E+02  0.25500000000E-02 0. -1.
<mgrwt>
<rscale>  0 0.21269751E+01</rscale>
<asrwt>0</asrwt>
<pdfrwt beam="1">0</pdfrwt>
<pdfrwt beam="2">0</pdfrwt>
<totfact> 0.34997753E+12</totfact>
</mgrwt>
</event>
<event>
 4    1  0.3281603E+006  0.4359043E+01  0.7546771E-02  0.2213502E+00
         22   -1    0    0    0    0  0.00000000000E+00  0.00000000000E+00  0.72271839528E+01  0.72271839528E+01  0.00000000000E+00 0. -1.
         22   -1    0    0    0    0 -0.00000000000E+00 -0.00000000000E+00 -0.35762791112E+01  0.35762791112E+01  0.00000000000E+00 0.  1.
          2    1    1    2  501    0  0.41982679628E+01  0.11729423067E+01  0.46053253948E+01  0.63411573105E+01  0.25500000000E-02 0. -1.
         -2    1    1    2    0  501 -0.41982679628E+01 -0.11729423067E+01 -0.95442055315E+00  0.44623057535E+01  0.25500000000E-02 0.  1.
<mgrwt>
<rscale>  0 0.43590428E+01</rscale>
<asrwt>0</asrwt>
<pdfrwt beam="1">0</pdfrwt>
<pdfrwt beam="2">0</pdfrwt>
<totfact> 0.53732517E+11</totfact>
</mgrwt>
</event>
<event>
 4    1  0.3281603E+006  0.2618211E+01  0.7546771E-02  0.2658603E+00
         22   -1    0    0    0    0  0.00000000000E+00  0.00000000000E+00  0.12759975754E+02  0.12759975754E+02  0.00000000000E+00 0.  1.
         22   -1    0    0    0    0 -0.00000000000E+00 -0.00000000000E+00 -0.56935644264E+00  0.56935644264E+00  0.00000000000E+00 0. -1.
          2    1    1    2  501    0  0.11302622846E+01 -0.23616788882E+01  0.45121464649E+01  0.52167511179E+01  0.25500000000E-02 0.  1.
         -2    1    1    2    0  501 -0.11302622846E+01  0.23616788882E+01  0.76784728463E+01  0.81125810786E+01  0.25500000000E-02 0. -1.
<mgrwt>
<rscale>  0 0.26182106E+01</rscale>
<asrwt>0</asrwt>
<pdfrwt beam="1">0</pdfrwt>
<pdfrwt beam="2">0</pdfrwt>
<totfact> 0.22375785E+12</totfact>
</mgrwt>
</event>
<event>
 4    1  0.3281603E+006  0.2073686E+01  0.7546771E-02  0.2932703E+00
         22   -1    0    0    0    0  0.00000000000E+00  0.00000000000E+00  0.34801296241E+00  0.34801296241E+00  0.00000000000E+00 0.  1.
         22   -1    0    0    0    0 -0.00000000000E+00 -0.00000000000E+00 -0.12546204799E+02  0.12546204799E+02  0.00000000000E+00 0. -1.
          2    1    1    2  501    0  0.20540564959E+01  0.28463531564E+00 -0.53060224705E+01  0.56968452946E+01  0.25500000000E-02 0.  1.
         -2    1    1    2    0  501 -0.20540564959E+01 -0.28463531564E+00 -0.68921693658E+01  0.71973724665E+01  0.25500000000E-02 0. -1.
<mgrwt>
<rscale>  0 0.20736856E+01</rscale>
<asrwt>0</asrwt>
<pdfrwt beam="1">0</pdfrwt>
<pdfrwt beam="2">0</pdfrwt>
<totfact> 0.39785762E+12</totfact>
</mgrwt>
</event>
<event>
 4    1  0.3281603E+006  0.2292844E+01  0.7546771E-02  0.2807560E+00
         22   -1    0    0    0    0  0.00000000000E+00  0.00000000000E+00  0.38810115957E+02  0.38810115957E+02  0.00000000000E+00 0. -1.
         22   -1    0    0    0    0 -0.00000000000E+00 -0.00000000000E+00 -0.33919686672E+00  0.33919686672E+00  0.00000000000E+00 0.  1.
          2    1    1    2  501    0  0.18143782290E+00  0.22856520698E+01  0.34406152733E+02  0.34482466232E+02  0.25500000000E-02 0. -1.
         -2    1    1    2    0  501 -0.18143782290E+00 -0.22856520698E+01  0.40647663579E+01  0.46668465921E+01  0.25500000000E-02 0.  1.
<mgrwt>
<rscale>  0 0.22928436E+01</rscale>
<asrwt>0</asrwt>
<pdfrwt beam="1">0</pdfrwt>
<pdfrwt beam="2">0</pdfrwt>
<totfact> 0.99276575E+11</totfact>
</mgrwt>
</event>
<event>
 4    1  0.3281603E+006  0.2251282E+01  0.7546771E-02  0.2829496E+00
         22   -1    0    0    0    0  0.00000000000E+00  0.00000000000E+00  0.98039185911E+01  0.98039185911E+01  0.00000000000E+00 0.  1.
         22   -1    0    0    0    0 -0.00000000000E+00 -0.00000000000E+00 -0.84347103907E+00  0.84347103907E+00  0.00000000000E+00 0. -1.
          2    1    1    2  501    0  0.93342377939E+00 -0.20486540958E+01  0.77924846558E+01  0.81111705179E+01  0.25500000000E-02 0.  1.
         -2    1    1    2    0  501 -0.93342377939E+00  0.20486540958E+01  0.11679628962E+01  0.25362191123E+01  0.25500000000E-02 0. -1.
<mgrwt>
<rscale>  0 0.22512819E+01</rscale>
<asrwt>0</asrwt>
<pdfrwt beam="1">0</pdfrwt>
<pdfrwt beam="2">0</pdfrwt>
<totfact> 0.19734065E+12</totfact>
</mgrwt>
</event>
<event>
 4    1  0.3281603E+006  0.2709953E+01  0.7546771E-02  0.2622631E+00
         22   -1    0    0    0    0  0.00000000000E+00  0.00000000000E+00  0.39838874088E+00  0.39838874088E+00  0.00000000000E+00 0.  1.
         22   -1    0    0    0    0 -0.00000000000E+00 -0.00000000000E+00 -0.18494557059E+02  0.18494557059E+02  0.00000000000E+00 0. -1.
          2    1    1    2  501    0  0.23934936299E+01  0.12708362366E+01 -0.95892433457E+01  0.99648096290E+01  0.25500000000E-02 0.  1.
         -2    1    1    2    0  501 -0.23934936299E+01 -0.12708362366E+01 -0.85069249725E+01  0.89281361710E+01  0.25500000000E-02 0. -1.
<mgrwt>
<rscale>  0 0.27099526E+01</rscale>
<asrwt>0</asrwt>
<pdfrwt beam="1">0</pdfrwt>
<pdfrwt beam="2">0</pdfrwt>
<totfact> 0.21192526E+12</totfact>
</mgrwt>
</event>
<event>
 4    1  0.3281603E+006  0.2128569E+01  0.7546771E-02  0.2899036E+00
         22   -1    0    0    0    0  0.00000000000E+00  0.00000000000E+00  0.15938759723E+00  0.15938759723E+00  0.00000000000E+00 0. -1.
         22   -1    0    0    0    0 -0.00000000000E+00 -0.00000000000E+00 -0.46279095543E+02  0.46279095543E+02  0.00000000000E+00 0.  1.
          2    1    1    2  501    0  0.70165320899E+00  0.20095975955E+01 -0.86384277376E+01  0.88968106646E+01  0.25500000000E-02 0. -1.
         -2    1    1    2    0  501 -0.70165320899E+00 -0.20095975955E+01 -0.37481280208E+02  0.37541672475E+02  0.25500000000E-02 0.  1.
<mgrwt>
<rscale>  0 0.21285691E+01</rscale>
<asrwt>0</asrwt>
<pdfrwt beam="1">0</pdfrwt>
<pdfrwt beam="2">0</pdfrwt>
<totfact> 0.18357613E+12</totfact>
</mgrwt>
</event>
<event>
 4    1  0.3281603E+006  0.3206901E+01  0.7546771E-02  0.2460582E+00
         22   -1    0    0    0    0  0.00000000000E+00  0.00000000000E+00  0.22861338365E+01  0.22861338365E+01  0.00000000000E+00 0.  1.
         22   -1    0    0    0    0 -0.00000000000E+00 -0.00000000000E+00 -0.90049574924E+01  0.90049574924E+01  0.00000000000E+00 0. -1.
          2    1    1    2  501    0 -0.31456158655E+01 -0.62394561957E+00  0.63434733222E+00  0.32690381383E+01  0.25500000000E-02 0.  1.
         -2    1    1    2    0  501  0.31456158655E+01  0.62394561957E+00 -0.73531709881E+01  0.80220531906E+01  0.25500000000E-02 0. -1.
<mgrwt>
<rscale>  0 0.32069010E+01</rscale>
<asrwt>0</asrwt>
<pdfrwt beam="1">0</pdfrwt>
<pdfrwt beam="2">0</pdfrwt>
<totfact> 0.69537023E+11</totfact>
</mgrwt>
</event>
<event>
 4    1  0.3281603E+006  0.2174175E+01  0.7546771E-02  0.2872312E+00
         22   -1    0    0    0    0  0.00000000000E+00  0.00000000000E+00  0.20889727941E+02  0.20889727941E+02  0.00000000000E+00 0. -1.
         22   -1    0    0    0    0 -0.00000000000E+00 -0.00000000000E+00 -0.34385764778E+00  0.34385764778E+00  0.00000000000E+00 0.  1.
          2    1    1    2  501    0 -0.11217268345E+01  0.18624608741E+01  0.16481005288E+02  0.16623795397E+02  0.25500000000E-02 0. -1.
         -2    1    1    2    0  501  0.11217268345E+01 -0.18624608741E+01  0.40648650056E+01  0.46097901921E+01  0.25500000000E-02 0.  1.
<mgrwt>
<rscale>  0 0.21741753E+01</rscale>
<asrwt>0</asrwt>
<pdfrwt beam="1">0</pdfrwt>
<pdfrwt beam="2">0</pdfrwt>
<totfact> 0.21485248E+12</totfact>
</mgrwt>
</event>
<event>
 4    1  0.3281603E+006  0.3478469E+01  0.7546771E-02  0.2389655E+00
         22   -1    0    0    0    0  0.00000000000E+00  0.00000000000E+00  0.45441964431E+01  0.45441964431E+01  0.00000000000E+00 0. -1.
         22   -1    0    0    0    0 -0.00000000000E+00 -0.00000000000E+00 -0.29612578473E+01  0.29612578473E+01  0.00000000000E+00 0.  1.
          2    1    1    2  501    0 -0.17438721881E+01  0.30097593297E+01 -0.40014733204E+00  0.35014091194E+01  0.25500000000E-02 0.  1.
         -2    1    1    2    0  501  0.17438721881E+01 -0.30097593297E+01  0.19830859278E+01  0.40040451709E+01  0.25500000000E-02 0. -1.
<mgrwt>
<rscale>  0 0.34784692E+01</rscale>
<asrwt>0</asrwt>
<pdfrwt beam="1">0</pdfrwt>
<pdfrwt beam="2">0</pdfrwt>
<totfact> 0.11634204E+12</totfact>
</mgrwt>
</event>
<event>
 4    1  0.3281603E+006  0.2398013E+01  0.7546771E-02  0.2755275E+00
         22   -1    0    0    0    0  0.00000000000E+00  0.00000000000E+00  0.77372198009E+01  0.77372198009E+01  0.00000000000E+00 0. -1.
         22   -1    0    0    0    0 -0.00000000000E+00 -0.00000000000E+00 -0.11473312209E+01  0.11473312209E+01  0.00000000000E+00 0.  1.
          2    1    1    2  501    0  0.20619457542E+01  0.12242711357E+01  0.59313414612E+01  0.63977557111E+01  0.25500000000E-02 0. -1.
         -2    1    1    2    0  501 -0.20619457542E+01 -0.12242711357E+01  0.65854711875E+00  0.24867953107E+01  0.25500000000E-02 0.  1.
<mgrwt>
<rscale>  0 0.23980131E+01</rscale>
<asrwt>0</asrwt>
<pdfrwt beam="1">0</pdfrwt>
<pdfrwt beam="2">0</pdfrwt>
<totfact> 0.18474310E+12</totfact>
</mgrwt>
</event>
<event>
 4    1  0.3281603E+006  0.2134590E+01  0.7546771E-02  0.2895445E+00
         22   -1    0    0    0    0  0.00000000000E+00  0.00000000000E+00  0.56668718768E+01  0.56668718768E+01  0.00000000000E+00 0.  1.
         22   -1    0    0    0    0 -0.00000000000E+00 -0.00000000000E+00 -0.13619100867E+01  0.13619100867E+01  0.00000000000E+00 0. -1.
          2    1    1    2  501    0  0.17712528999E+01 -0.11912734947E+01  0.44017251020E+01  0.48919995657E+01  0.25500000000E-02 0.  1.
         -2    1    1    2    0  501 -0.17712528999E+01  0.11912734947E+01 -0.96763311973E-01  0.21367823978E+01  0.25500000000E-02 0. -1.
<mgrwt>
<rscale>  0 0.21345903E+01</rscale>
<asrwt>0</asrwt>
<pdfrwt beam="1">0</pdfrwt>
<pdfrwt beam="2">0</pdfrwt>
<totfact> 0.22012185E+12</totfact>
</mgrwt>
</event>
<event>
 4    1  0.3281603E+006  0.4942139E+01  0.7546771E-02  0.2129974E+00
         22   -1    0    0    0    0  0.00000000000E+00  0.00000000000E+00  0.52371773172E+01  0.52371773172E+01  0.00000000000E+00 0.  1.
         22   -1    0    0    0    0 -0.00000000000E+00 -0.00000000000E+00 -0.11961270154E+02  0.11961270154E+02  0.00000000000E+00 0. -1.
          2    1    1    2  501    0  0.45881337550E+01  0.18367800130E+01  0.33547020650E+01  0.59731703992E+01  0.25500000000E-02 0.  1.
         -2    1    1    2    0  501 -0.45881337550E+01 -0.18367800130E+01 -0.10078794901E+02  0.11225277072E+02  0.25500000000E-02 0. -1.
<mgrwt>
<rscale>  0 0.49421391E+01</rscale>
<asrwt>0</asrwt>
<pdfrwt beam="1">0</pdfrwt>
<pdfrwt beam="2">0</pdfrwt>
<totfact> 0.18645295E+11</totfact>
</mgrwt>
</event>
<event>
 4    1  0.3281603E+006  0.2402801E+01  0.7546771E-02  0.2752997E+00
         22   -1    0    0    0    0  0.00000000000E+00  0.00000000000E+00  0.28560255647E+01  0.28560255647E+01  0.00000000000E+00 0.  1.
         22   -1    0    0    0    0 -0.00000000000E+00 -0.00000000000E+00 -0.29761207861E+01  0.29761207861E+01  0.00000000000E+00 0. -1.
          2    1    1    2  501    0  0.19032201002E+01 -0.14666962165E+01  0.15914918459E+01  0.28820647702E+01  0.25500000000E-02 0.  1.
         -2    1    1    2    0  501 -0.19032201002E+01  0.14666962165E+01 -0.17115870672E+01  0.29500815807E+01  0.25500000000E-02 0. -1.
<mgrwt>
<rscale>  0 0.24028007E+01</rscale>
<asrwt>0</asrwt>
<pdfrwt beam="1">0</pdfrwt>
<pdfrwt beam="2">0</pdfrwt>
<totfact> 0.19947875E+12</totfact>
</mgrwt>
</event>
<event>
 4    1  0.3281603E+006  0.4190424E+01  0.7546771E-02  0.2242308E+00
         22   -1    0    0    0    0  0.00000000000E+00  0.00000000000E+00  0.51686221878E+01  0.51686221878E+01  0.00000000000E+00 0.  1.
         22   -1    0    0    0    0 -0.00000000000E+00 -0.00000000000E+00 -0.51189664772E+01  0.51189664772E+01  0.00000000000E+00 0. -1.
          2    1    1    2  501    0  0.17307749374E+01 -0.38162896490E+01 -0.29582168907E+01  0.51293958946E+01  0.25500000000E-02 0. -1.
         -2    1    1    2    0  501 -0.17307749374E+01  0.38162896490E+01  0.30078726012E+01  0.51581927704E+01  0.25500000000E-02 0.  1.
<mgrwt>
<rscale>  0 0.41904242E+01</rscale>
<asrwt>0</asrwt>
<pdfrwt beam="1">0</pdfrwt>
<pdfrwt beam="2">0</pdfrwt>
<totfact> 0.52485354E+11</totfact>
</mgrwt>
</event>
<event>
 4    1  0.3281603E+006  0.2714115E+01  0.7546771E-02  0.2621052E+00
         22   -1    0    0    0    0  0.00000000000E+00  0.00000000000E+00  0.81943978370E+01  0.81943978370E+01  0.00000000000E+00 0.  1.
         22   -1    0    0    0    0 -0.00000000000E+00 -0.00000000000E+00 -0.90092303186E+00  0.90092303186E+00  0.00000000000E+00 0. -1.
          2    1    1    2  501    0 -0.79099757317E+00 -0.25962926554E+01  0.34343480746E+01  0.43773469034E+01  0.25500000000E-02 0.  1.
         -2    1    1    2    0  501  0.79099757317E+00  0.25962926554E+01  0.38591267306E+01  0.47179739655E+01  0.25500000000E-02 0. -1.
<mgrwt>
<rscale>  0 0.27141148E+01</rscale>
<asrwt>0</asrwt>
<pdfrwt beam="1">0</pdfrwt>
<pdfrwt beam="2">0</pdfrwt>
<totfact> 0.22728575E+12</totfact>
</mgrwt>
</event>
<event>
 4    1  0.3281603E+006  0.2427136E+01  0.7546771E-02  0.2741552E+00
         22   -1    0    0    0    0  0.00000000000E+00  0.00000000000E+00  0.16775433207E+02  0.16775433207E+02  0.00000000000E+00 0. -1.
         22   -1    0    0    0    0 -0.00000000000E+00 -0.00000000000E+00 -0.37366044360E+00  0.37366044360E+00  0.00000000000E+00 0.  1.
          2    1    1    2  501    0 -0.21414553630E+01  0.11424319081E+01  0.10304640669E+02  0.10586623992E+02  0.25500000000E-02 0. -1.
         -2    1    1    2    0  501  0.21414553630E+01 -0.11424319081E+01  0.60971320948E+01  0.65624696586E+01  0.25500000000E-02 0.  1.
<mgrwt>
<rscale>  0 0.24271358E+01</rscale>
<asrwt>0</asrwt>
<pdfrwt beam="1">0</pdfrwt>
<pdfrwt beam="2">0</pdfrwt>
<totfact> 0.25704039E+12</totfact>
</mgrwt>
</event>
<event>
 4    1  0.3281603E+006  0.5400365E+01  0.7546771E-02  0.2078043E+00
         22   -1    0    0    0    0  0.00000000000E+00  0.00000000000E+00  0.29903423568E+00  0.29903423568E+00  0.00000000000E+00 0. -1.
         22   -1    0    0    0    0 -0.00000000000E+00 -0.00000000000E+00 -0.10120834745E+03  0.10120834745E+03  0.00000000000E+00 0.  1.
          2    1    1    2  501    0 -0.25687290692E+01 -0.47503226432E+01 -0.40775061813E+02  0.41131126979E+02  0.25500000000E-02 0. -1.
         -2    1    1    2    0  501  0.25687290692E+01  0.47503226432E+01 -0.60134251397E+02  0.60376254702E+02  0.25500000000E-02 0.  1.
<mgrwt>
<rscale>  0 0.54003649E+01</rscale>
<asrwt>0</asrwt>
<pdfrwt beam="1">0</pdfrwt>
<pdfrwt beam="2">0</pdfrwt>
<totfact> 0.31464364E+11</totfact>
</mgrwt>
</event>
<event>
 4    1  0.3281603E+006  0.3331354E+01  0.7546771E-02  0.2426816E+00
         22   -1    0    0    0    0  0.00000000000E+00  0.00000000000E+00  0.22879781195E+02  0.22879781195E+02  0.00000000000E+00 0. -1.
         22   -1    0    0    0    0 -0.00000000000E+00 -0.00000000000E+00 -0.56369355342E+00  0.56369355342E+00  0.00000000000E+00 0.  1.
          2    1    1    2  501    0  0.17658631874E+01  0.28248253371E+01  0.15536211682E+02  0.15889360935E+02  0.25500000000E-02 0. -1.
         -2    1    1    2    0  501 -0.17658631874E+01 -0.28248253371E+01  0.67798759598E+01  0.75541138140E+01  0.25500000000E-02 0.  1.
<mgrwt>
<rscale>  0 0.33313537E+01</rscale>
<asrwt>0</asrwt>
<pdfrwt beam="1">0</pdfrwt>
<pdfrwt beam="2">0</pdfrwt>
<totfact> 0.10982653E+12</totfact>
</mgrwt>
</event>
<event>
 4    1  0.3281603E+006  0.2072539E+01  0.7546771E-02  0.2933425E+00
         22   -1    0    0    0    0  0.00000000000E+00  0.00000000000E+00  0.16286593016E+02  0.16286593016E+02  0.00000000000E+00 0.  1.
         22   -1    0    0    0    0 -0.00000000000E+00 -0.00000000000E+00 -0.78819315387E+00  0.78819315387E+00  0.00000000000E+00 0. -1.
          2    1    1    2  501    0  0.48290431716E+00 -0.20154933508E+01  0.14713260528E+02  0.14858514457E+02  0.25500000000E-02 0.  1.
         -2    1    1    2    0  501 -0.48290431716E+00  0.20154933508E+01  0.78513933473E+00  0.22162717126E+01  0.25500000000E-02 0. -1.
<mgrwt>
<rscale>  0 0.20725387E+01</rscale>
<asrwt>0</asrwt>
<pdfrwt beam="1">0</pdfrwt>
<pdfrwt beam="2">0</pdfrwt>
<totfact> 0.11463343E+12</totfact>
</mgrwt>
</event>
<event>
 4    1  0.3281603E+006  0.7277480E+01  0.7546771E-02  0.1921080E+00
         22   -1    0    0    0    0  0.00000000000E+00  0.00000000000E+00  0.68830790705E+01  0.68830790705E+01  0.00000000000E+00 0. -1.
         22   -1    0    0    0    0 -0.00000000000E+00 -0.00000000000E+00 -0.78242000021E+01  0.78242000021E+01  0.00000000000E+00 0.  1.
          2    1    1    2  501    0 -0.52139869910E+01  0.50770122863E+01  0.47629631654E+00  0.72930500328E+01  0.25500000000E-02 0. -1.
         -2    1    1    2    0  501  0.52139869910E+01 -0.50770122863E+01 -0.14174172481E+01  0.74142290398E+01  0.25500000000E-02 0.  1.
<mgrwt>
<rscale>  0 0.72774804E+01</rscale>
<asrwt>0</asrwt>
<pdfrwt beam="1">0</pdfrwt>
<pdfrwt beam="2">0</pdfrwt>
<totfact> 0.22503428E+11</totfact>
</mgrwt>
</event>
<event>
 4    1  0.3281603E+006  0.2609245E+01  0.7546771E-02  0.2662243E+00
         22   -1    0    0    0    0  0.00000000000E+00  0.00000000000E+00  0.56131660336E+01  0.56131660336E+01  0.00000000000E+00 0. -1.
         22   -1    0    0    0    0 -0.00000000000E+00 -0.00000000000E+00 -0.22839492711E+01  0.22839492711E+01  0.00000000000E+00 0.  1.
          2    1    1    2  501    0 -0.14754616954E+01 -0.21520139566E+01  0.43685781667E+01  0.50884804201E+01  0.25500000000E-02 0. -1.
         -2    1    1    2    0  501  0.14754616954E+01  0.21520139566E+01 -0.10393614042E+01  0.28086348846E+01  0.25500000000E-02 0.  1.
<mgrwt>
<rscale>  0 0.26092447E+01</rscale>
<asrwt>0</asrwt>
<pdfrwt beam="1">0</pdfrwt>
<pdfrwt beam="2">0</pdfrwt>
<totfact> 0.12256869E+12</totfact>
</mgrwt>
</event>
<event>
 4    1  0.3281603E+006  0.3363460E+01  0.7546771E-02  0.2418463E+00
         22   -1    0    0    0    0  0.00000000000E+00  0.00000000000E+00  0.74563417689E+01  0.74563417689E+01  0.00000000000E+00 0.  1.
         22   -1    0    0    0    0 -0.00000000000E+00 -0.00000000000E+00 -0.15980874454E+01  0.15980874454E+01  0.00000000000E+00 0. -1.
          2    1    1    2  501    0 -0.21295876859E+01 -0.26034040679E+01  0.39475659345E+01  0.51861488373E+01  0.25500000000E-02 0.  1.
         -2    1    1    2    0  501  0.21295876859E+01  0.26034040679E+01  0.19106883891E+01  0.38682803770E+01  0.25500000000E-02 0. -1.
<mgrwt>
<rscale>  0 0.33634600E+01</rscale>
<asrwt>0</asrwt>
<pdfrwt beam="1">0</pdfrwt>
<pdfrwt beam="2">0</pdfrwt>
<totfact> 0.13200182E+12</totfact>
</mgrwt>
</event>
<event>
 4    1  0.3281603E+006  0.2303414E+01  0.7546771E-02  0.2802101E+00
         22   -1    0    0    0    0  0.00000000000E+00  0.00000000000E+00  0.30627021314E+00  0.30627021314E+00  0.00000000000E+00 0.  1.
         22   -1    0    0    0    0 -0.00000000000E+00 -0.00000000000E+00 -0.17371693387E+02  0.17371693387E+02  0.00000000000E+00 0. -1.
          2    1    1    2  501    0  0.13650110288E+01 -0.18553851996E+01 -0.89975792785E+01  0.92877418528E+01  0.25500000000E-02 0. -1.
         -2    1    1    2    0  501 -0.13650110288E+01  0.18553851996E+01 -0.80678438950E+01  0.83902217470E+01  0.25500000000E-02 0.  1.
<mgrwt>
<rscale>  0 0.23034140E+01</rscale>
<asrwt>0</asrwt>
<pdfrwt beam="1">0</pdfrwt>
<pdfrwt beam="2">0</pdfrwt>
<totfact> 0.30776530E+12</totfact>
</mgrwt>
</event>
<event>
 4    1  0.3281603E+006  0.3535693E+01  0.7546771E-02  0.2375933E+00
         22   -1    0    0    0    0  0.00000000000E+00  0.00000000000E+00  0.25954555993E+02  0.25954555993E+02  0.00000000000E+00 0. -1.
         22   -1    0    0    0    0 -0.00000000000E+00 -0.00000000000E+00 -0.73926500200E+00  0.73926500200E+00  0.00000000000E+00 0.  1.
          2    1    1    2  501    0  0.34566393596E+01  0.74348090590E+00  0.20486490256E+02  0.20789358072E+02  0.25500000000E-02 0. -1.
         -2    1    1    2    0  501 -0.34566393596E+01 -0.74348090590E+00  0.47288007352E+01  0.59044629236E+01  0.25500000000E-02 0.  1.
<mgrwt>
<rscale>  0 0.35356931E+01</rscale>
<asrwt>0</asrwt>
<pdfrwt beam="1">0</pdfrwt>
<pdfrwt beam="2">0</pdfrwt>
<totfact> 0.68901711E+11</totfact>
</mgrwt>
</event>
<event>
 4    1  0.3281603E+006  0.4093416E+01  0.7546771E-02  0.2259786E+00
         22   -1    0    0    0    0  0.00000000000E+00  0.00000000000E+00  0.40701511913E+01  0.40701511913E+01  0.00000000000E+00 0.  1.
         22   -1    0    0    0    0 -0.00000000000E+00 -0.00000000000E+00 -0.81184472262E+01  0.81184472262E+01  0.00000000000E+00 0. -1.
          2    1    1    2  501    0  0.22670821453E+01  0.34082815569E+01  0.22544943183E+01  0.46731997345E+01  0.25500000000E-02 0.  1.
         -2    1    1    2    0  501 -0.22670821453E+01 -0.34082815569E+01 -0.63027903533E+01  0.75153986830E+01  0.25500000000E-02 0. -1.
<mgrwt>
<rscale>  0 0.40934156E+01</rscale>
<asrwt>0</asrwt>
<pdfrwt beam="1">0</pdfrwt>
<pdfrwt beam="2">0</pdfrwt>
<totfact> 0.40144143E+11</totfact>
</mgrwt>
</event>
<event>
 4    1  0.3281603E+006  0.2966541E+01  0.7546771E-02  0.2532860E+00
         22   -1    0    0    0    0  0.00000000000E+00  0.00000000000E+00  0.25267913251E+01  0.25267913251E+01  0.00000000000E+00 0.  1.
         22   -1    0    0    0    0 -0.00000000000E+00 -0.00000000000E+00 -0.38463836192E+01  0.38463836192E+01  0.00000000000E+00 0. -1.
          2    1    1    2  501    0 -0.25618051027E+01  0.14958312940E+01  0.31989427204E+00  0.29837385093E+01  0.25500000000E-02 0.  1.
         -2    1    1    2    0  501  0.25618051027E+01 -0.14958312940E+01 -0.16394865661E+01  0.33894364350E+01  0.25500000000E-02 0. -1.
<mgrwt>
<rscale>  0 0.29665406E+01</rscale>
<asrwt>0</asrwt>
<pdfrwt beam="1">0</pdfrwt>
<pdfrwt beam="2">0</pdfrwt>
<totfact> 0.17035576E+12</totfact>
</mgrwt>
</event>
<event>
 4    1  0.3281603E+006  0.3403435E+01  0.7546771E-02  0.2408257E+00
         22   -1    0    0    0    0  0.00000000000E+00  0.00000000000E+00  0.42226757965E+00  0.42226757965E+00  0.00000000000E+00 0. -1.
         22   -1    0    0    0    0 -0.00000000000E+00 -0.00000000000E+00 -0.35252357241E+02  0.35252357241E+02  0.00000000000E+00 0.  1.
          2    1    1    2  501    0 -0.12407400123E+01  0.31692154329E+01 -0.90133529715E+01  0.96345161025E+01  0.25500000000E-02 0. -1.
         -2    1    1    2    0  501  0.12407400123E+01 -0.31692154329E+01 -0.25816736690E+02  0.26040108718E+02  0.25500000000E-02 0.  1.
<mgrwt>
<rscale>  0 0.34034348E+01</rscale>
<asrwt>0</asrwt>
<pdfrwt beam="1">0</pdfrwt>
<pdfrwt beam="2">0</pdfrwt>
<totfact> 0.87857660E+11</totfact>
</mgrwt>
</event>
<event>
 4    1  0.3281603E+006  0.3241617E+01  0.7546771E-02  0.2450933E+00
         22   -1    0    0    0    0  0.00000000000E+00  0.00000000000E+00  0.61743023180E+01  0.61743023180E+01  0.00000000000E+00 0.  1.
         22   -1    0    0    0    0 -0.00000000000E+00 -0.00000000000E+00 -0.28850812549E+01  0.28850812549E+01  0.00000000000E+00 0. -1.
          2    1    1    2  501    0  0.28907110512E+01 -0.14669243735E+01  0.45453859881E+01  0.55828861516E+01  0.25500000000E-02 0.  1.
         -2    1    1    2    0  501 -0.28907110512E+01  0.14669243735E+01 -0.12561649249E+01  0.34764974213E+01  0.25500000000E-02 0. -1.
<mgrwt>
<rscale>  0 0.32416175E+01</rscale>
<asrwt>0</asrwt>
<pdfrwt beam="1">0</pdfrwt>
<pdfrwt beam="2">0</pdfrwt>
<totfact> 0.83378311E+11</totfact>
</mgrwt>
</event>
<event>
 4    1  0.3281603E+006  0.2422163E+01  0.7546771E-02  0.2743873E+00
         22   -1    0    0    0    0  0.00000000000E+00  0.00000000000E+00  0.10171811815E+02  0.10171811815E+02  0.00000000000E+00 0. -1.
         22   -1    0    0    0    0 -0.00000000000E+00 -0.00000000000E+00 -0.18487904369E+01  0.18487904369E+01  0.00000000000E+00 0.  1.
          2    1    1    2  501    0 -0.20317949295E+01 -0.13185881786E+01  0.91468894256E+01  0.94621592719E+01  0.25500000000E-02 0. -1.
         -2    1    1    2    0  501  0.20317949295E+01  0.13185881786E+01 -0.82386804746E+00  0.25584429801E+01  0.25500000000E-02 0.  1.
<mgrwt>
<rscale>  0 0.24221627E+01</rscale>
<asrwt>0</asrwt>
<pdfrwt beam="1">0</pdfrwt>
<pdfrwt beam="2">0</pdfrwt>
<totfact> 0.76740487E+11</totfact>
</mgrwt>
</event>
<event>
 4    1  0.3281603E+006  0.2625978E+01  0.7546771E-02  0.2655468E+00
         22   -1    0    0    0    0  0.00000000000E+00  0.00000000000E+00  0.10136422448E+02  0.10136422448E+02  0.00000000000E+00 0. -1.
         22   -1    0    0    0    0 -0.00000000000E+00 -0.00000000000E+00 -0.72465135805E+00  0.72465135805E+00  0.00000000000E+00 0.  1.
          2    1    1    2  501    0 -0.22083959122E+01  0.14208242295E+01  0.33623328311E+01  0.42662679904E+01  0.25500000000E-02 0. -1.
         -2    1    1    2    0  501  0.22083959122E+01 -0.14208242295E+01  0.60494382592E+01  0.65948058160E+01  0.25500000000E-02 0.  1.
<mgrwt>
<rscale>  0 0.26259780E+01</rscale>
<asrwt>0</asrwt>
<pdfrwt beam="1">0</pdfrwt>
<pdfrwt beam="2">0</pdfrwt>
<totfact> 0.22525889E+12</totfact>
</mgrwt>
</event>
<event>
 4    1  0.3281603E+006  0.3890298E+01  0.7546771E-02  0.2298768E+00
         22   -1    0    0    0    0  0.00000000000E+00  0.00000000000E+00  0.20858023323E+01  0.20858023323E+01  0.00000000000E+00 0.  1.
         22   -1    0    0    0    0 -0.00000000000E+00 -0.00000000000E+00 -0.14762267640E+02  0.14762267640E+02  0.00000000000E+00 0. -1.
          2    1    1    2  501    0  0.21651109954E+01  0.32321370283E+01 -0.33122944639E+00  0.39043738090E+01  0.25500000000E-02 0.  1.
         -2    1    1    2    0  501 -0.21651109954E+01 -0.32321370283E+01 -0.12345235862E+02  0.12943696163E+02  0.25500000000E-02 0. -1.
<mgrwt>
<rscale>  0 0.38902984E+01</rscale>
<asrwt>0</asrwt>
<pdfrwt beam="1">0</pdfrwt>
<pdfrwt beam="2">0</pdfrwt>
<totfact> 0.42365800E+11</totfact>
</mgrwt>
</event>
<event>
 4    1  0.3281603E+006  0.2108295E+01  0.7546771E-02  0.2911275E+00
         22   -1    0    0    0    0  0.00000000000E+00  0.00000000000E+00  0.11287735854E+02  0.11287735854E+02  0.00000000000E+00 0.  1.
         22   -1    0    0    0    0 -0.00000000000E+00 -0.00000000000E+00 -0.49842636403E+00  0.49842636403E+00  0.00000000000E+00 0. -1.
          2    1    1    2  501    0 -0.75435011514E+00  0.19687194724E+01  0.80948792930E+01  0.83649254467E+01  0.25500000000E-02 0. -1.
         -2    1    1    2    0  501  0.75435011514E+00 -0.19687194724E+01  0.26944301969E+01  0.34212367714E+01  0.25500000000E-02 0.  1.
<mgrwt>
<rscale>  0 0.21082948E+01</rscale>
<asrwt>0</asrwt>
<pdfrwt beam="1">0</pdfrwt>
<pdfrwt beam="2">0</pdfrwt>
<totfact> 0.30198282E+12</totfact>
</mgrwt>
</event>
<event>
 4    1  0.3281603E+006  0.2627629E+01  0.7546771E-02  0.2654803E+00
         22   -1    0    0    0    0  0.00000000000E+00  0.00000000000E+00  0.12283504178E+03  0.12283504178E+03  0.00000000000E+00 0. -1.
         22   -1    0    0    0    0 -0.00000000000E+00 -0.00000000000E+00 -0.61807707585E-01  0.61807707585E-01  0.00000000000E+00 0.  1.
          2    1    1    2  501    0 -0.34371559425E+00  0.26050506698E+01  0.79880708452E+02  0.79923913935E+02  0.25500000000E-02 0.  1.
         -2    1    1    2    0  501  0.34371559425E+00 -0.26050506698E+01  0.42892525624E+02  0.42972935556E+02  0.25500000000E-02 0. -1.
<mgrwt>
<rscale>  0 0.26276293E+01</rscale>
<asrwt>0</asrwt>
<pdfrwt beam="1">0</pdfrwt>
<pdfrwt beam="2">0</pdfrwt>
<totfact> 0.13754778E+12</totfact>
</mgrwt>
</event>
<event>
 4    1  0.3281603E+006  0.2308885E+01  0.7546771E-02  0.2799294E+00
         22   -1    0    0    0    0  0.00000000000E+00  0.00000000000E+00  0.82105446143E+00  0.82105446143E+00  0.00000000000E+00 0.  1.
         22   -1    0    0    0    0 -0.00000000000E+00 -0.00000000000E+00 -0.13327191711E+02  0.13327191711E+02  0.00000000000E+00 0. -1.
          2    1    1    2  501    0  0.85787038596E-01 -0.23072888728E+01 -0.11872106275E+01  0.25962312947E+01  0.25500000000E-02 0.  1.
         -2    1    1    2    0  501 -0.85787038596E-01  0.23072888728E+01 -0.11318926622E+02  0.11552014877E+02  0.25500000000E-02 0. -1.
<mgrwt>
<rscale>  0 0.23088845E+01</rscale>
<asrwt>0</asrwt>
<pdfrwt beam="1">0</pdfrwt>
<pdfrwt beam="2">0</pdfrwt>
<totfact> 0.14003949E+12</totfact>
</mgrwt>
</event>
<event>
 4    1  0.3281603E+006  0.2407605E+01  0.7546771E-02  0.2750721E+00
         22   -1    0    0    0    0  0.00000000000E+00  0.00000000000E+00  0.14203420196E+02  0.14203420196E+02  0.00000000000E+00 0.  1.
         22   -1    0    0    0    0 -0.00000000000E+00 -0.00000000000E+00 -0.57816049699E+00  0.57816049699E+00  0.00000000000E+00 0. -1.
          2    1    1    2  501    0  0.23971707931E+01 -0.22388961187E+00  0.10820884945E+02  0.11085491052E+02  0.25500000000E-02 0.  1.
         -2    1    1    2    0  501 -0.23971707931E+01  0.22388961187E+00  0.28043747536E+01  0.36960896405E+01  0.25500000000E-02 0. -1.
<mgrwt>
<rscale>  0 0.24076048E+01</rscale>
<asrwt>0</asrwt>
<pdfrwt beam="1">0</pdfrwt>
<pdfrwt beam="2">0</pdfrwt>
<totfact> 0.19284744E+12</totfact>
</mgrwt>
</event>
<event>
 4    1  0.3281603E+006  0.4121004E+01  0.7546771E-02  0.2254744E+00
         22   -1    0    0    0    0  0.00000000000E+00  0.00000000000E+00  0.97537406478E+01  0.97537406478E+01  0.00000000000E+00 0.  1.
         22   -1    0    0    0    0 -0.00000000000E+00 -0.00000000000E+00 -0.43148106503E+01  0.43148106503E+01  0.00000000000E+00 0. -1.
          2    1    1    2  501    0  0.38897620214E+01 -0.13610345701E+01  0.81521513428E+01  0.91345630274E+01  0.25500000000E-02 0.  1.
         -2    1    1    2    0  501 -0.38897620214E+01  0.13610345701E+01 -0.27132213453E+01  0.49339882707E+01  0.25500000000E-02 0. -1.
<mgrwt>
<rscale>  0 0.41210035E+01</rscale>
<asrwt>0</asrwt>
<pdfrwt beam="1">0</pdfrwt>
<pdfrwt beam="2">0</pdfrwt>
<totfact> 0.30036457E+11</totfact>
</mgrwt>
</event>
<event>
 4    1  0.3281603E+006  0.2567649E+01  0.7546771E-02  0.2679437E+00
         22   -1    0    0    0    0  0.00000000000E+00  0.00000000000E+00  0.10011676746E+01  0.10011676746E+01  0.00000000000E+00 0. -1.
         22   -1    0    0    0    0 -0.00000000000E+00 -0.00000000000E+00 -0.65881022135E+01  0.65881022135E+01  0.00000000000E+00 0.  1.
          2    1    1    2  501    0 -0.25672077747E+01 -0.47509297384E-01 -0.28740648786E+01  0.38539678671E+01  0.25500000000E-02 0. -1.
         -2    1    1    2    0  501  0.25672077747E+01  0.47509297384E-01 -0.27128696603E+01  0.37353020210E+01  0.25500000000E-02 0.  1.
<mgrwt>
<rscale>  0 0.25676486E+01</rscale>
<asrwt>0</asrwt>
<pdfrwt beam="1">0</pdfrwt>
<pdfrwt beam="2">0</pdfrwt>
<totfact> 0.26170765E+12</totfact>
</mgrwt>
</event>
<event>
 4    1  0.3281603E+006  0.2635356E+01  0.7546771E-02  0.2651705E+00
         22   -1    0    0    0    0  0.00000000000E+00  0.00000000000E+00  0.92631363638E+00  0.92631363638E+00  0.00000000000E+00 0.  1.
         22   -1    0    0    0    0 -0.00000000000E+00 -0.00000000000E+00 -0.29190524685E+02  0.29190524685E+02  0.00000000000E+00 0. -1.
          2    1    1    2  501    0  0.93119305526E+00 -0.24653549038E+01 -0.11508176633E+01  0.28756708964E+01  0.25500000000E-02 0.  1.
         -2    1    1    2    0  501 -0.93119305526E+00  0.24653549038E+01 -0.27113393385E+02  0.27241167425E+02  0.25500000000E-02 0. -1.
<mgrwt>
<rscale>  0 0.26353561E+01</rscale>
<asrwt>0</asrwt>
<pdfrwt beam="1">0</pdfrwt>
<pdfrwt beam="2">0</pdfrwt>
<totfact> 0.45920898E+11</totfact>
</mgrwt>
</event>
<event>
 4    1  0.3281603E+006  0.2576516E+01  0.7546771E-02  0.2675728E+00
         22   -1    0    0    0    0  0.00000000000E+00  0.00000000000E+00  0.11934801510E+01  0.11934801510E+01  0.00000000000E+00 0.  1.
         22   -1    0    0    0    0 -0.00000000000E+00 -0.00000000000E+00 -0.64819519695E+01  0.64819519695E+01  0.00000000000E+00 0. -1.
          2    1    1    2  501    0  0.90694639712E+00 -0.24116130788E+01 -0.11986519942E+01  0.28416900807E+01  0.25500000000E-02 0. -1.
         -2    1    1    2    0  501 -0.90694639712E+00  0.24116130788E+01 -0.40898198243E+01  0.48337420398E+01  0.25500000000E-02 0.  1.
<mgrwt>
<rscale>  0 0.25765162E+01</rscale>
<asrwt>0</asrwt>
<pdfrwt beam="1">0</pdfrwt>
<pdfrwt beam="2">0</pdfrwt>
<totfact> 0.21825100E+12</totfact>
</mgrwt>
</event>
<event>
 4    1  0.3281603E+006  0.2102402E+01  0.7546771E-02  0.2914875E+00
         22   -1    0    0    0    0  0.00000000000E+00  0.00000000000E+00  0.12473715226E+00  0.12473715226E+00  0.00000000000E+00 0. -1.
         22   -1    0    0    0    0 -0.00000000000E+00 -0.00000000000E+00 -0.35483464297E+02  0.35483464297E+02  0.00000000000E+00 0.  1.
          2    1    1    2  501    0  0.20333656902E+01  0.53433345548E+00 -0.17023216686E+02  0.17152550863E+02  0.25500000000E-02 0.  1.
         -2    1    1    2    0  501 -0.20333656902E+01 -0.53433345548E+00 -0.18335510459E+02  0.18455650587E+02  0.25500000000E-02 0. -1.
<mgrwt>
<rscale>  0 0.21024021E+01</rscale>
<asrwt>0</asrwt>
<pdfrwt beam="1">0</pdfrwt>
<pdfrwt beam="2">0</pdfrwt>
<totfact> 0.34038111E+12</totfact>
</mgrwt>
</event>
<event>
 4    1  0.3281603E+006  0.2087846E+01  0.7546771E-02  0.2923852E+00
         22   -1    0    0    0    0  0.00000000000E+00  0.00000000000E+00  0.16354363508E+01  0.16354363508E+01  0.00000000000E+00 0. -1.
         22   -1    0    0    0    0 -0.00000000000E+00 -0.00000000000E+00 -0.10572450327E+02  0.10572450327E+02  0.00000000000E+00 0.  1.
          2    1    1    2  501    0  0.58911460705E+00  0.20030077492E+01  0.81022657051E+00  0.22395467536E+01  0.25500000000E-02 0. -1.
         -2    1    1    2    0  501 -0.58911460705E+00 -0.20030077492E+01 -0.97472405465E+01  0.99683399239E+01  0.25500000000E-02 0.  1.
<mgrwt>
<rscale>  0 0.20878464E+01</rscale>
<asrwt>0</asrwt>
<pdfrwt beam="1">0</pdfrwt>
<pdfrwt beam="2">0</pdfrwt>
<totfact> 0.84355164E+11</totfact>
</mgrwt>
</event>
<event>
 4    1  0.3281603E+006  0.4103372E+01  0.7546771E-02  0.2257960E+00
         22   -1    0    0    0    0  0.00000000000E+00  0.00000000000E+00  0.41849259211E+01  0.41849259211E+01  0.00000000000E+00 0. -1.
         22   -1    0    0    0    0 -0.00000000000E+00 -0.00000000000E+00 -0.52078802664E+01  0.52078802664E+01  0.00000000000E+00 0.  1.
          2    1    1    2  501    0 -0.48087287828E+00  0.40750966672E+01  0.17282627783E+01  0.44524768731E+01  0.25500000000E-02 0. -1.
         -2    1    1    2    0  501  0.48087287828E+00 -0.40750966672E+01 -0.27512171236E+01  0.49403293145E+01  0.25500000000E-02 0.  1.
<mgrwt>
<rscale>  0 0.41033715E+01</rscale>
<asrwt>0</asrwt>
<pdfrwt beam="1">0</pdfrwt>
<pdfrwt beam="2">0</pdfrwt>
<totfact> 0.65995250E+11</totfact>
</mgrwt>
</event>
<event>
 4    1  0.3281603E+006  0.2110455E+01  0.7546771E-02  0.2909960E+00
         22   -1    0    0    0    0  0.00000000000E+00  0.00000000000E+00  0.10379937725E+01  0.10379937725E+01  0.00000000000E+00 0. -1.
         22   -1    0    0    0    0 -0.00000000000E+00 -0.00000000000E+00 -0.18683231227E+02  0.18683231227E+02  0.00000000000E+00 0.  1.
          2    1    1    2  501    0  0.29017784164E+00 -0.20904093007E+01 -0.16811607767E+00  0.21171404635E+01  0.25500000000E-02 0. -1.
         -2    1    1    2    0  501 -0.29017784164E+00  0.20904093007E+01 -0.17477121377E+02  0.17604084536E+02  0.25500000000E-02 0.  1.
<mgrwt>
<rscale>  0 0.21104551E+01</rscale>
<asrwt>0</asrwt>
<pdfrwt beam="1">0</pdfrwt>
<pdfrwt beam="2">0</pdfrwt>
<totfact> 0.70656009E+11</totfact>
</mgrwt>
</event>
<event>
 4    1  0.3281603E+006  0.2089513E+01  0.7546771E-02  0.2922818E+00
         22   -1    0    0    0    0  0.00000000000E+00  0.00000000000E+00  0.18778598450E+02  0.18778598450E+02  0.00000000000E+00 0. -1.
         22   -1    0    0    0    0 -0.00000000000E+00 -0.00000000000E+00 -0.23250701447E+00  0.23250701447E+00  0.00000000000E+00 0.  1.
          2    1    1    2  501    0 -0.20346728034E+01  0.47556934128E+00  0.93161409839E+01  0.95475938828E+01  0.25500000000E-02 0. -1.
         -2    1    1    2    0  501  0.20346728034E+01 -0.47556934128E+00  0.92299504516E+01  0.94635115817E+01  0.25500000000E-02 0.  1.
<mgrwt>
<rscale>  0 0.20895134E+01</rscale>
<asrwt>0</asrwt>
<pdfrwt beam="1">0</pdfrwt>
<pdfrwt beam="2">0</pdfrwt>
<totfact> 0.38036837E+12</totfact>
</mgrwt>
</event>
<event>
 4    1  0.3281603E+006  0.2617849E+01  0.7546771E-02  0.2658749E+00
         22   -1    0    0    0    0  0.00000000000E+00  0.00000000000E+00  0.38739505611E+00  0.38739505611E+00  0.00000000000E+00 0.  1.
         22   -1    0    0    0    0 -0.00000000000E+00 -0.00000000000E+00 -0.19040354524E+02  0.19040354524E+02  0.00000000000E+00 0. -1.
          2    1    1    2  501    0  0.25773453408E+01  0.45871264029E+00 -0.67398667300E+01  0.72304174384E+01  0.25500000000E-02 0.  1.
         -2    1    1    2    0  501 -0.25773453408E+01 -0.45871264029E+00 -0.11913092738E+02  0.12197332142E+02  0.25500000000E-02 0. -1.
<mgrwt>
<rscale>  0 0.26178489E+01</rscale>
<asrwt>0</asrwt>
<pdfrwt beam="1">0</pdfrwt>
<pdfrwt beam="2">0</pdfrwt>
<totfact> 0.21093775E+12</totfact>
</mgrwt>
</event>
<event>
 4    1  0.3281603E+006  0.4915628E+01  0.7546771E-02  0.2133211E+00
         22   -1    0    0    0    0  0.00000000000E+00  0.00000000000E+00  0.22883015368E+01  0.22883015368E+01  0.00000000000E+00 0.  1.
         22   -1    0    0    0    0 -0.00000000000E+00 -0.00000000000E+00 -0.10608859024E+02  0.10608859024E+02  0.00000000000E+00 0. -1.
          2    1    1    2  501    0 -0.46226514275E+01  0.16716715702E+01 -0.37205730253E+01  0.61649056925E+01  0.25500000000E-02 0. -1.
         -2    1    1    2    0  501  0.46226514275E+01 -0.16716715702E+01 -0.45999844623E+01  0.67322548685E+01  0.25500000000E-02 0.  1.
<mgrwt>
<rscale>  0 0.49156280E+01</rscale>
<asrwt>0</asrwt>
<pdfrwt beam="1">0</pdfrwt>
<pdfrwt beam="2">0</pdfrwt>
<totfact> 0.56965393E+11</totfact>
</mgrwt>
</event>
<event>
 4    1  0.3281603E+006  0.2925868E+01  0.7546771E-02  0.2546138E+00
         22   -1    0    0    0    0  0.00000000000E+00  0.00000000000E+00  0.12295783516E+01  0.12295783516E+01  0.00000000000E+00 0. -1.
         22   -1    0    0    0    0 -0.00000000000E+00 -0.00000000000E+00 -0.14113938359E+02  0.14113938359E+02  0.00000000000E+00 0.  1.
          2    1    1    2  501    0 -0.28934591341E+01 -0.43427315952E+00 -0.98116611596E+00  0.30859994147E+01  0.25500000000E-02 0.  1.
         -2    1    1    2    0  501  0.28934591341E+01  0.43427315952E+00 -0.11903193891E+02  0.12257517296E+02  0.25500000000E-02 0. -1.
<mgrwt>
<rscale>  0 0.29258683E+01</rscale>
<asrwt>0</asrwt>
<pdfrwt beam="1">0</pdfrwt>
<pdfrwt beam="2">0</pdfrwt>
<totfact> 0.82305014E+11</totfact>
</mgrwt>
</event>
<event>
 4    1  0.3281603E+006  0.3787939E+01  0.7546771E-02  0.2319761E+00
         22   -1    0    0    0    0  0.00000000000E+00  0.00000000000E+00  0.15298056609E+01  0.15298056609E+01  0.00000000000E+00 0. -1.
         22   -1    0    0    0    0 -0.00000000000E+00 -0.00000000000E+00 -0.18764439851E+02  0.18764439851E+02  0.00000000000E+00 0.  1.
          2    1    1    2  501    0  0.39762132687E+00  0.37670109533E+01 -0.14410949875E+01  0.40528058808E+01  0.25500000000E-02 0.  1.
         -2    1    1    2    0  501 -0.39762132687E+00 -0.37670109533E+01 -0.15793539203E+02  0.16241439631E+02  0.25500000000E-02 0. -1.
<mgrwt>
<rscale>  0 0.37879389E+01</rscale>
<asrwt>0</asrwt>
<pdfrwt beam="1">0</pdfrwt>
<pdfrwt beam="2">0</pdfrwt>
<totfact> 0.45048491E+11</totfact>
</mgrwt>
</event>
<event>
 4    1  0.3281603E+006  0.2178649E+01  0.7546771E-02  0.2869749E+00
         22   -1    0    0    0    0  0.00000000000E+00  0.00000000000E+00  0.11630518008E+01  0.11630518008E+01  0.00000000000E+00 0. -1.
         22   -1    0    0    0    0 -0.00000000000E+00 -0.00000000000E+00 -0.11683260350E+02  0.11683260350E+02  0.00000000000E+00 0.  1.
          2    1    1    2  501    0  0.11780993850E+01  0.18326443441E+01 -0.78843271418E-01  0.21800748190E+01  0.25500000000E-02 0. -1.
         -2    1    1    2    0  501 -0.11780993850E+01 -0.18326443441E+01 -0.10441365278E+02  0.10666237332E+02  0.25500000000E-02 0.  1.
<mgrwt>
<rscale>  0 0.21786487E+01</rscale>
<asrwt>0</asrwt>
<pdfrwt beam="1">0</pdfrwt>
<pdfrwt beam="2">0</pdfrwt>
<totfact> 0.11051830E+12</totfact>
</mgrwt>
</event>
<event>
 4    1  0.3281603E+006  0.2009402E+01  0.7546771E-02  0.2974409E+00
         22   -1    0    0    0    0  0.00000000000E+00  0.00000000000E+00  0.15156765925E+02  0.15156765925E+02  0.00000000000E+00 0.  1.
         22   -1    0    0    0    0 -0.00000000000E+00 -0.00000000000E+00 -0.32489712375E+00  0.32489712375E+00  0.00000000000E+00 0. -1.
          2    1    1    2  501    0 -0.13333495922E+01  0.15032855630E+01  0.10700654936E+02  0.10887686218E+02  0.25500000000E-02 0.  1.
         -2    1    1    2    0  501  0.13333495922E+01 -0.15032855630E+01  0.41312138653E+01  0.45939768308E+01  0.25500000000E-02 0. -1.
<mgrwt>
<rscale>  0 0.20094017E+01</rscale>
<asrwt>0</asrwt>
<pdfrwt beam="1">0</pdfrwt>
<pdfrwt beam="2">0</pdfrwt>
<totfact> 0.34085300E+12</totfact>
</mgrwt>
</event>
<event>
 4    1  0.3281603E+006  0.2477373E+01  0.7546771E-02  0.2718590E+00
         22   -1    0    0    0    0  0.00000000000E+00  0.00000000000E+00  0.12751955844E+00  0.12751955844E+00  0.00000000000E+00 0. -1.
         22   -1    0    0    0    0 -0.00000000000E+00 -0.00000000000E+00 -0.69789420340E+02  0.69789420340E+02  0.00000000000E+00 0.  1.
          2    1    1    2  501    0 -0.17129942724E+01  0.17896984346E+01 -0.15355296831E+02  0.15553858593E+02  0.25500000000E-02 0. -1.
         -2    1    1    2    0  501  0.17129942724E+01 -0.17896984346E+01 -0.54306603950E+02  0.54363081305E+02  0.25500000000E-02 0.  1.
<mgrwt>
<rscale>  0 0.24773729E+01</rscale>
<asrwt>0</asrwt>
<pdfrwt beam="1">0</pdfrwt>
<pdfrwt beam="2">0</pdfrwt>
<totfact> 0.13605300E+12</totfact>
</mgrwt>
</event>
<event>
 4    1  0.3281603E+006  0.2624880E+01  0.7546771E-02  0.2655910E+00
         22   -1    0    0    0    0  0.00000000000E+00  0.00000000000E+00  0.12063711439E+02  0.12063711439E+02  0.00000000000E+00 0.  1.
         22   -1    0    0    0    0 -0.00000000000E+00 -0.00000000000E+00 -0.11661173605E+01  0.11661173605E+01  0.00000000000E+00 0. -1.
          2    1    1    2  501    0  0.25616135271E+01  0.57282113263E+00  0.10173837690E+02  0.10506996134E+02  0.25500000000E-02 0.  1.
         -2    1    1    2    0  501 -0.25616135271E+01 -0.57282113263E+00  0.72375638842E+00  0.27228326655E+01  0.25500000000E-02 0. -1.
<mgrwt>
<rscale>  0 0.26248799E+01</rscale>
<asrwt>0</asrwt>
<pdfrwt beam="1">0</pdfrwt>
<pdfrwt beam="2">0</pdfrwt>
<totfact> 0.10597108E+12</totfact>
</mgrwt>
</event>
<event>
 4    1  0.3281603E+006  0.4002725E+01  0.7546771E-02  0.2276774E+00
         22   -1    0    0    0    0  0.00000000000E+00  0.00000000000E+00  0.41648898632E+02  0.41648898632E+02  0.00000000000E+00 0.  1.
         22   -1    0    0    0    0 -0.00000000000E+00 -0.00000000000E+00 -0.39172803721E+00  0.39172803721E+00  0.00000000000E+00 0. -1.
          2    1    1    2  501    0 -0.39958891858E+01  0.23382421432E+00  0.23446642387E+02  0.23785853986E+02  0.25500000000E-02 0. -1.
         -2    1    1    2    0  501  0.39958891858E+01 -0.23382421432E+00  0.17810528208E+02  0.18254772683E+02  0.25500000000E-02 0.  1.
<mgrwt>
<rscale>  0 0.40027254E+01</rscale>
<asrwt>0</asrwt>
<pdfrwt beam="1">0</pdfrwt>
<pdfrwt beam="2">0</pdfrwt>
<totfact> 0.77050038E+11</totfact>
</mgrwt>
</event>
<event>
 4    1  0.3281603E+006  0.3665045E+01  0.7546771E-02  0.2346292E+00
         22   -1    0    0    0    0  0.00000000000E+00  0.00000000000E+00  0.48530496395E+01  0.48530496395E+01  0.00000000000E+00 0. -1.
         22   -1    0    0    0    0 -0.00000000000E+00 -0.00000000000E+00 -0.30414867666E+01  0.30414867666E+01  0.00000000000E+00 0.  1.
          2    1    1    2  501    0 -0.40299497499E+00 -0.36428211723E+01  0.20897323151E+01  0.42189499516E+01  0.25500000000E-02 0. -1.
         -2    1    1    2    0  501  0.40299497499E+00  0.36428211723E+01 -0.27816944226E+00  0.36755864545E+01  0.25500000000E-02 0.  1.
<mgrwt>
<rscale>  0 0.36650454E+01</rscale>
<asrwt>0</asrwt>
<pdfrwt beam="1">0</pdfrwt>
<pdfrwt beam="2">0</pdfrwt>
<totfact> 0.10433314E+12</totfact>
</mgrwt>
</event>
<event>
 4    1  0.3281603E+006  0.2040958E+01  0.7546771E-02  0.2953615E+00
         22   -1    0    0    0    0  0.00000000000E+00  0.00000000000E+00  0.29890522010E+01  0.29890522010E+01  0.00000000000E+00 0.  1.
         22   -1    0    0    0    0 -0.00000000000E+00 -0.00000000000E+00 -0.14074172365E+01  0.14074172365E+01  0.00000000000E+00 0. -1.
          2    1    1    2  501    0 -0.15740770197E+01 -0.12991483272E+01  0.10087090299E+01  0.22766214550E+01  0.25500000000E-02 0. -1.
         -2    1    1    2    0  501  0.15740770197E+01  0.12991483272E+01  0.57292593453E+00  0.21198479825E+01  0.25500000000E-02 0.  1.
<mgrwt>
<rscale>  0 0.20409584E+01</rscale>
<asrwt>0</asrwt>
<pdfrwt beam="1">0</pdfrwt>
<pdfrwt beam="2">0</pdfrwt>
<totfact> 0.45026381E+12</totfact>
</mgrwt>
</event>
<event>
 4    1  0.3281603E+006  0.2572967E+01  0.7546771E-02  0.2677210E+00
         22   -1    0    0    0    0  0.00000000000E+00  0.00000000000E+00  0.38077955311E+00  0.38077955311E+00  0.00000000000E+00 0.  1.
         22   -1    0    0    0    0 -0.00000000000E+00 -0.00000000000E+00 -0.35325681705E+02  0.35325681705E+02  0.00000000000E+00 0. -1.
          2    1    1    2  501    0  0.82295420539E+00 -0.24378065627E+01 -0.47496948514E+01  0.54018295183E+01  0.25500000000E-02 0.  1.
         -2    1    1    2    0  501 -0.82295420539E+00  0.24378065627E+01 -0.30195207301E+02  0.30304631740E+02  0.25500000000E-02 0. -1.
<mgrwt>
<rscale>  0 0.25729673E+01</rscale>
<asrwt>0</asrwt>
<pdfrwt beam="1">0</pdfrwt>
<pdfrwt beam="2">0</pdfrwt>
<totfact> 0.98438552E+11</totfact>
</mgrwt>
</event>
<event>
 4    1  0.3281603E+006  0.2188821E+01  0.7546771E-02  0.2863957E+00
         22   -1    0    0    0    0  0.00000000000E+00  0.00000000000E+00  0.41339973662E+01  0.41339973662E+01  0.00000000000E+00 0. -1.
         22   -1    0    0    0    0 -0.00000000000E+00 -0.00000000000E+00 -0.21668252608E+01  0.21668252608E+01  0.00000000000E+00 0.  1.
          2    1    1    2  501    0 -0.16360689398E+00 -0.21826967771E+01  0.31322421210E+01  0.38212405896E+01  0.25500000000E-02 0. -1.
         -2    1    1    2    0  501  0.16360689398E+00  0.21826967771E+01 -0.11650700156E+01  0.24795820374E+01  0.25500000000E-02 0.  1.
<mgrwt>
<rscale>  0 0.21888214E+01</rscale>
<asrwt>0</asrwt>
<pdfrwt beam="1">0</pdfrwt>
<pdfrwt beam="2">0</pdfrwt>
<totfact> 0.18706898E+12</totfact>
</mgrwt>
</event>
<event>
 4    1  0.3281603E+006  0.2680671E+01  0.7546771E-02  0.2633867E+00
         22   -1    0    0    0    0  0.00000000000E+00  0.00000000000E+00  0.66201015409E+01  0.66201015409E+01  0.00000000000E+00 0. -1.
         22   -1    0    0    0    0 -0.00000000000E+00 -0.00000000000E+00 -0.11396554682E+01  0.11396554682E+01  0.00000000000E+00 0.  1.
          2    1    1    2  501    0  0.22237750165E+01  0.14969355962E+01  0.35861376093E+01  0.44773185009E+01  0.25500000000E-02 0. -1.
         -2    1    1    2    0  501 -0.22237750165E+01 -0.14969355962E+01  0.18943084633E+01  0.32824385082E+01  0.25500000000E-02 0.  1.
<mgrwt>
<rscale>  0 0.26806712E+01</rscale>
<asrwt>0</asrwt>
<pdfrwt beam="1">0</pdfrwt>
<pdfrwt beam="2">0</pdfrwt>
<totfact> 0.22437615E+12</totfact>
</mgrwt>
</event>
<event>
 4    1  0.3281603E+006  0.3179321E+01  0.7546771E-02  0.2468380E+00
         22   -1    0    0    0    0  0.00000000000E+00  0.00000000000E+00  0.58963176688E+00  0.58963176688E+00  0.00000000000E+00 0.  1.
         22   -1    0    0    0    0 -0.00000000000E+00 -0.00000000000E+00 -0.21517181174E+02  0.21517181174E+02  0.00000000000E+00 0. -1.
          2    1    1    2  501    0  0.22650605229E+01  0.22310485701E+01 -0.54801004773E+01  0.63355808445E+01  0.25500000000E-02 0.  1.
         -2    1    1    2    0  501 -0.22650605229E+01 -0.22310485701E+01 -0.15447448930E+02  0.15771232096E+02  0.25500000000E-02 0. -1.
<mgrwt>
<rscale>  0 0.31793212E+01</rscale>
<asrwt>0</asrwt>
<pdfrwt beam="1">0</pdfrwt>
<pdfrwt beam="2">0</pdfrwt>
<totfact> 0.11272544E+12</totfact>
</mgrwt>
</event>
<event>
 4    1  0.3281603E+006  0.2310445E+01  0.7546771E-02  0.2798496E+00
         22   -1    0    0    0    0  0.00000000000E+00  0.00000000000E+00  0.92410188383E+01  0.92410188383E+01  0.00000000000E+00 0. -1.
         22   -1    0    0    0    0 -0.00000000000E+00 -0.00000000000E+00 -0.60251249563E+00  0.60251249563E+00  0.00000000000E+00 0.  1.
          2    1    1    2  501    0 -0.61931224131E+00 -0.22258940282E+01  0.53188641153E+01  0.57990062818E+01  0.25500000000E-02 0.  1.
         -2    1    1    2    0  501  0.61931224131E+00  0.22258940282E+01  0.33196422274E+01  0.40445250521E+01  0.25500000000E-02 0. -1.
<mgrwt>
<rscale>  0 0.23104455E+01</rscale>
<asrwt>0</asrwt>
<pdfrwt beam="1">0</pdfrwt>
<pdfrwt beam="2">0</pdfrwt>
<totfact> 0.31056919E+12</totfact>
</mgrwt>
</event>
<event>
 4    1  0.3281603E+006  0.3870601E+01  0.7546771E-02  0.2302733E+00
         22   -1    0    0    0    0  0.00000000000E+00  0.00000000000E+00  0.16035931611E+01  0.16035931611E+01  0.00000000000E+00 0. -1.
         22   -1    0    0    0    0 -0.00000000000E+00 -0.00000000000E+00 -0.11031417237E+02  0.11031417237E+02  0.00000000000E+00 0.  1.
          2    1    1    2  501    0  0.33313537007E+01 -0.19706926386E+01 -0.22419864599E+01  0.44730366356E+01  0.25500000000E-02 0. -1.
         -2    1    1    2    0  501 -0.33313537007E+01  0.19706926386E+01 -0.71858376157E+01  0.81619737623E+01  0.25500000000E-02 0.  1.
<mgrwt>
<rscale>  0 0.38706012E+01</rscale>
<asrwt>0</asrwt>
<pdfrwt beam="1">0</pdfrwt>
<pdfrwt beam="2">0</pdfrwt>
<totfact> 0.81956807E+11</totfact>
</mgrwt>
</event>
<event>
 4    1  0.3281603E+006  0.3668133E+01  0.7546771E-02  0.2345607E+00
         22   -1    0    0    0    0  0.00000000000E+00  0.00000000000E+00  0.70806231521E+01  0.70806231521E+01  0.00000000000E+00 0.  1.
         22   -1    0    0    0    0 -0.00000000000E+00 -0.00000000000E+00 -0.19368449614E+01  0.19368449614E+01  0.00000000000E+00 0. -1.
          2    1    1    2  501    0  0.10117613911E+01  0.35258375472E+01  0.31913492290E+01  0.48620888439E+01  0.25500000000E-02 0. -1.
         -2    1    1    2    0  501 -0.10117613911E+01 -0.35258375472E+01  0.19524289617E+01  0.41553792696E+01  0.25500000000E-02 0.  1.
<mgrwt>
<rscale>  0 0.36681328E+01</rscale>
<asrwt>0</asrwt>
<pdfrwt beam="1">0</pdfrwt>
<pdfrwt beam="2">0</pdfrwt>
<totfact> 0.11248390E+12</totfact>
</mgrwt>
</event>
<event>
 4    1  0.3281603E+006  0.2584044E+01  0.7546771E-02  0.2672599E+00
         22   -1    0    0    0    0  0.00000000000E+00  0.00000000000E+00  0.54821866875E+01  0.54821866875E+01  0.00000000000E+00 0. -1.
         22   -1    0    0    0    0 -0.00000000000E+00 -0.00000000000E+00 -0.44011512052E+01  0.44011512052E+01  0.00000000000E+00 0.  1.
          2    1    1    2  501    0 -0.98412920998E+00  0.23893026291E+01  0.47431305554E+01  0.54013490281E+01  0.25500000000E-02 0. -1.
         -2    1    1    2    0  501  0.98412920998E+00 -0.23893026291E+01 -0.36620950731E+01  0.44819888646E+01  0.25500000000E-02 0.  1.
<mgrwt>
<rscale>  0 0.25840441E+01</rscale>
<asrwt>0</asrwt>
<pdfrwt beam="1">0</pdfrwt>
<pdfrwt beam="2">0</pdfrwt>
<totfact> 0.58514390E+11</totfact>
</mgrwt>
</event>
<event>
 4    1  0.3281603E+006  0.3084267E+01  0.7546771E-02  0.2496204E+00
         22   -1    0    0    0    0  0.00000000000E+00  0.00000000000E+00  0.95414995081E+01  0.95414995081E+01  0.00000000000E+00 0.  1.
         22   -1    0    0    0    0 -0.00000000000E+00 -0.00000000000E+00 -0.27422860740E+01  0.27422860740E+01  0.00000000000E+00 0. -1.
          2    1    1    2  501    0  0.13736869170E+01  0.27614631275E+01  0.82994414842E+01  0.88540064266E+01  0.25500000000E-02 0.  1.
         -2    1    1    2    0  501 -0.13736869170E+01 -0.27614631275E+01 -0.15002280500E+01  0.34297791555E+01  0.25500000000E-02 0. -1.
<mgrwt>
<rscale>  0 0.30842667E+01</rscale>
<asrwt>0</asrwt>
<pdfrwt beam="1">0</pdfrwt>
<pdfrwt beam="2">0</pdfrwt>
<totfact> 0.52475211E+11</totfact>
</mgrwt>
</event>
<event>
 4    1  0.3281603E+006  0.2120979E+01  0.7546771E-02  0.2903592E+00
         22   -1    0    0    0    0  0.00000000000E+00  0.00000000000E+00  0.24029828078E+01  0.24029828078E+01  0.00000000000E+00 0. -1.
         22   -1    0    0    0    0 -0.00000000000E+00 -0.00000000000E+00 -0.18721388151E+01  0.18721388151E+01  0.00000000000E+00 0.  1.
          2    1    1    2  501    0  0.20431158235E+01  0.56940589313E+00  0.27838876032E+00  0.21391709010E+01  0.25500000000E-02 0.  1.
         -2    1    1    2    0  501 -0.20431158235E+01 -0.56940589313E+00  0.25245523238E+00  0.21359507219E+01  0.25500000000E-02 0. -1.
<mgrwt>
<rscale>  0 0.21209790E+01</rscale>
<asrwt>0</asrwt>
<pdfrwt beam="1">0</pdfrwt>
<pdfrwt beam="2">0</pdfrwt>
<totfact> 0.41792498E+12</totfact>
</mgrwt>
</event>
<event>
 4    1  0.3281603E+006  0.2593443E+01  0.7546771E-02  0.2668714E+00
         22   -1    0    0    0    0  0.00000000000E+00  0.00000000000E+00  0.75977141416E-01  0.75977141416E-01  0.00000000000E+00 0. -1.
         22   -1    0    0    0    0 -0.00000000000E+00 -0.00000000000E+00 -0.95447421374E+02  0.95447421374E+02  0.00000000000E+00 0.  1.
          2    1    1    2  501    0  0.41167472780E+00  0.25605595149E+01 -0.60547390265E+02  0.60602907649E+02  0.25500000000E-02 0.  1.
         -2    1    1    2    0  501 -0.41167472780E+00 -0.25605595149E+01 -0.34824053968E+02  0.34920490867E+02  0.25500000000E-02 0. -1.
<mgrwt>
<rscale>  0 0.25934432E+01</rscale>
<asrwt>0</asrwt>
<pdfrwt beam="1">0</pdfrwt>
<pdfrwt beam="2">0</pdfrwt>
<totfact> 0.15678958E+12</totfact>
</mgrwt>
</event>
<event>
 4    1  0.3281603E+006  0.2784600E+01  0.7546771E-02  0.2594968E+00
         22   -1    0    0    0    0  0.00000000000E+00  0.00000000000E+00  0.10598261394E+01  0.10598261394E+01  0.00000000000E+00 0.  1.
         22   -1    0    0    0    0 -0.00000000000E+00 -0.00000000000E+00 -0.13185233914E+02  0.13185233914E+02  0.00000000000E+00 0. -1.
          2    1    1    2  501    0 -0.54941269675E+00  0.27298604820E+01 -0.13107718515E+01  0.30776812557E+01  0.25500000000E-02 0.  1.
         -2    1    1    2    0  501  0.54941269675E+00 -0.27298604820E+01 -0.10814635923E+02  0.11167378798E+02  0.25500000000E-02 0. -1.
<mgrwt>
<rscale>  0 0.27846003E+01</rscale>
<asrwt>0</asrwt>
<pdfrwt beam="1">0</pdfrwt>
<pdfrwt beam="2">0</pdfrwt>
<totfact> 0.10605045E+12</totfact>
</mgrwt>
</event>
<event>
 4    1  0.3281603E+006  0.2388899E+01  0.7546771E-02  0.2759634E+00
         22   -1    0    0    0    0  0.00000000000E+00  0.00000000000E+00  0.71860794946E+00  0.71860794946E+00  0.00000000000E+00 0.  1.
         22   -1    0    0    0    0 -0.00000000000E+00 -0.00000000000E+00 -0.11026887420E+02  0.11026887420E+02  0.00000000000E+00 0. -1.
          2    1    1    2  501    0 -0.13133263425E+01  0.19954958611E+01 -0.20476593272E+01  0.31463860279E+01  0.25500000000E-02 0.  1.
         -2    1    1    2    0  501  0.13133263425E+01 -0.19954958611E+01 -0.82606201437E+01  0.85991093419E+01  0.25500000000E-02 0. -1.
<mgrwt>
<rscale>  0 0.23888986E+01</rscale>
<asrwt>0</asrwt>
<pdfrwt beam="1">0</pdfrwt>
<pdfrwt beam="2">0</pdfrwt>
<totfact> 0.20532028E+12</totfact>
</mgrwt>
</event>
<event>
 4    1  0.3281603E+006  0.4222176E+01  0.7546771E-02  0.2236735E+00
         22   -1    0    0    0    0  0.00000000000E+00  0.00000000000E+00  0.23519638759E+01  0.23519638759E+01  0.00000000000E+00 0.  1.
         22   -1    0    0    0    0 -0.00000000000E+00 -0.00000000000E+00 -0.80692907549E+01  0.80692907549E+01  0.00000000000E+00 0. -1.
          2    1    1    2  501    0  0.29115965045E+01 -0.30576741320E+01 -0.15749561481E+01  0.45063575838E+01  0.25500000000E-02 0.  1.
         -2    1    1    2    0  501 -0.29115965045E+01  0.30576741320E+01 -0.41423707309E+01  0.59148970470E+01  0.25500000000E-02 0. -1.
<mgrwt>
<rscale>  0 0.42221762E+01</rscale>
<asrwt>0</asrwt>
<pdfrwt beam="1">0</pdfrwt>
<pdfrwt beam="2">0</pdfrwt>
<totfact> 0.76783766E+11</totfact>
</mgrwt>
</event>
<event>
 4    1  0.3281603E+006  0.4040478E+01  0.7546771E-02  0.2269623E+00
         22   -1    0    0    0    0  0.00000000000E+00  0.00000000000E+00  0.44576338973E+01  0.44576338973E+01  0.00000000000E+00 0.  1.
         22   -1    0    0    0    0 -0.00000000000E+00 -0.00000000000E+00 -0.37689984750E+01  0.37689984750E+01  0.00000000000E+00 0. -1.
          2    1    1    2  501    0  0.30960005081E+01 -0.25961959054E+01  0.10362070659E+01  0.41712329006E+01  0.25500000000E-02 0. -1.
         -2    1    1    2    0  501 -0.30960005081E+01  0.25961959054E+01 -0.34757164361E+00  0.40553994717E+01  0.25500000000E-02 0.  1.
<mgrwt>
<rscale>  0 0.40404775E+01</rscale>
<asrwt>0</asrwt>
<pdfrwt beam="1">0</pdfrwt>
<pdfrwt beam="2">0</pdfrwt>
<totfact> 0.89722861E+11</totfact>
</mgrwt>
</event>
<event>
 4    1  0.3281603E+006  0.2973276E+01  0.7546771E-02  0.2530693E+00
         22   -1    0    0    0    0  0.00000000000E+00  0.00000000000E+00  0.37331974494E+02  0.37331974494E+02  0.00000000000E+00 0.  1.
         22   -1    0    0    0    0 -0.00000000000E+00 -0.00000000000E+00 -0.34234909546E+00  0.34234909546E+00  0.00000000000E+00 0. -1.
          2    1    1    2  501    0  0.29486774186E+01 -0.38166187517E+00  0.28954034129E+02  0.29106295937E+02  0.25500000000E-02 0.  1.
         -2    1    1    2    0  501 -0.29486774186E+01  0.38166187517E+00  0.80355912699E+01  0.85680276531E+01  0.25500000000E-02 0. -1.
<mgrwt>
<rscale>  0 0.29732761E+01</rscale>
<asrwt>0</asrwt>
<pdfrwt beam="1">0</pdfrwt>
<pdfrwt beam="2">0</pdfrwt>
<totfact> 0.10331700E+12</totfact>
</mgrwt>
</event>
<event>
 4    1  0.3281603E+006  0.6201760E+01  0.7546771E-02  0.2002053E+00
         22   -1    0    0    0    0  0.00000000000E+00  0.00000000000E+00  0.32938813398E+02  0.32938813398E+02  0.00000000000E+00 0.  1.
         22   -1    0    0    0    0 -0.00000000000E+00 -0.00000000000E+00 -0.11676807046E+01  0.11676807046E+01  0.00000000000E+00 0. -1.
          2    1    1    2  501    0 -0.25231004379E+01 -0.56653142212E+01  0.15923397983E+02  0.17088488256E+02  0.25500000000E-02 0.  1.
         -2    1    1    2    0  501  0.25231004379E+01  0.56653142212E+01  0.15847734710E+02  0.17018005847E+02  0.25500000000E-02 0. -1.
<mgrwt>
<rscale>  0 0.62017600E+01</rscale>
<asrwt>0</asrwt>
<pdfrwt beam="1">0</pdfrwt>
<pdfrwt beam="2">0</pdfrwt>
<totfact> 0.30206616E+11</totfact>
</mgrwt>
</event>
<event>
 4    1  0.3281603E+006  0.2551613E+01  0.7546771E-02  0.2686204E+00
         22   -1    0    0    0    0  0.00000000000E+00  0.00000000000E+00  0.14570895875E+01  0.14570895875E+01  0.00000000000E+00 0.  1.
         22   -1    0    0    0    0 -0.00000000000E+00 -0.00000000000E+00 -0.48290172829E+01  0.48290172829E+01  0.00000000000E+00 0. -1.
          2    1    1    2  501    0  0.97819661468E-01  0.25497362230E+01 -0.82695229373E+00  0.26822714426E+01  0.25500000000E-02 0.  1.
         -2    1    1    2    0  501 -0.97819661468E-01 -0.25497362230E+01 -0.25449754017E+01  0.36038354278E+01  0.25500000000E-02 0. -1.
<mgrwt>
<rscale>  0 0.25516132E+01</rscale>
<asrwt>0</asrwt>
<pdfrwt beam="1">0</pdfrwt>
<pdfrwt beam="2">0</pdfrwt>
<totfact> 0.24623558E+12</totfact>
</mgrwt>
</event>
<event>
 4    1  0.3281603E+006  0.2014528E+01  0.7546771E-02  0.2970988E+00
         22   -1    0    0    0    0  0.00000000000E+00  0.00000000000E+00  0.98080293661E+01  0.98080293661E+01  0.00000000000E+00 0. -1.
         22   -1    0    0    0    0 -0.00000000000E+00 -0.00000000000E+00 -0.46642206037E+00  0.46642206037E+00  0.00000000000E+00 0.  1.
          2    1    1    2  501    0 -0.11854038574E+01  0.16288449343E+01  0.63967333815E+01  0.67064538008E+01  0.25500000000E-02 0. -1.
         -2    1    1    2    0  501  0.11854038574E+01 -0.16288449343E+01  0.29448739242E+01  0.35679976257E+01  0.25500000000E-02 0.  1.
<mgrwt>
<rscale>  0 0.20145284E+01</rscale>
<asrwt>0</asrwt>
<pdfrwt beam="1">0</pdfrwt>
<pdfrwt beam="2">0</pdfrwt>
<totfact> 0.38595316E+12</totfact>
</mgrwt>
</event>
<event>
 4    1  0.3281603E+006  0.2635478E+01  0.7546771E-02  0.2651657E+00
         22   -1    0    0    0    0  0.00000000000E+00  0.00000000000E+00  0.33002735100E+01  0.33002735100E+01  0.00000000000E+00 0. -1.
         22   -1    0    0    0    0 -0.00000000000E+00 -0.00000000000E+00 -0.21355081457E+01  0.21355081457E+01  0.00000000000E+00 0.  1.
          2    1    1    2  501    0 -0.25764658072E+01 -0.55458170330E+00  0.25538562257E+00  0.26478227358E+01  0.25500000000E-02 0. -1.
         -2    1    1    2    0  501  0.25764658072E+01  0.55458170330E+00  0.90937974179E+00  0.27879589199E+01  0.25500000000E-02 0.  1.
<mgrwt>
<rscale>  0 0.26354778E+01</rscale>
<asrwt>0</asrwt>
<pdfrwt beam="1">0</pdfrwt>
<pdfrwt beam="2">0</pdfrwt>
<totfact> 0.24787050E+12</totfact>
</mgrwt>
</event>
<event>
 4    1  0.3281603E+006  0.5439768E+01  0.7546771E-02  0.2073902E+00
         22   -1    0    0    0    0  0.00000000000E+00  0.00000000000E+00  0.93702791499E+00  0.93702791499E+00  0.00000000000E+00 0.  1.
         22   -1    0    0    0    0 -0.00000000000E+00 -0.00000000000E+00 -0.35894141016E+02  0.35894141016E+02  0.00000000000E+00 0. -1.
          2    1    1    2  501    0  0.52430214549E+01  0.14497573197E+01 -0.11093935639E+02  0.12355827966E+02  0.25500000000E-02 0.  1.
         -2    1    1    2    0  501 -0.52430214549E+01 -0.14497573197E+01 -0.23863177462E+02  0.24475340965E+02  0.25500000000E-02 0. -1.
<mgrwt>
<rscale>  0 0.54397681E+01</rscale>
<asrwt>0</asrwt>
<pdfrwt beam="1">0</pdfrwt>
<pdfrwt beam="2">0</pdfrwt>
<totfact> 0.34783752E+11</totfact>
</mgrwt>
</event>
<event>
 4    1  0.3281603E+006  0.2190501E+01  0.7546771E-02  0.2863006E+00
         22   -1    0    0    0    0  0.00000000000E+00  0.00000000000E+00  0.66277518502E+02  0.66277518502E+02  0.00000000000E+00 0.  1.
         22   -1    0    0    0    0 -0.00000000000E+00 -0.00000000000E+00 -0.72435294721E-01  0.72435294721E-01  0.00000000000E+00 0. -1.
          2    1    1    2  501    0 -0.70678452395E+00  0.20733411715E+01  0.32339897739E+02  0.32413998214E+02  0.25500000000E-02 0. -1.
         -2    1    1    2    0  501  0.70678452395E+00 -0.20733411715E+01  0.33865185468E+02  0.33935955582E+02  0.25500000000E-02 0.  1.
<mgrwt>
<rscale>  0 0.21905010E+01</rscale>
<asrwt>0</asrwt>
<pdfrwt beam="1">0</pdfrwt>
<pdfrwt beam="2">0</pdfrwt>
<totfact> 0.27279386E+12</totfact>
</mgrwt>
</event>
<event>
 4    1  0.3281603E+006  0.2174669E+01  0.7546771E-02  0.2872029E+00
         22   -1    0    0    0    0  0.00000000000E+00  0.00000000000E+00  0.25841410875E+00  0.25841410875E+00  0.00000000000E+00 0.  1.
         22   -1    0    0    0    0 -0.00000000000E+00 -0.00000000000E+00 -0.26772944589E+02  0.26772944589E+02  0.00000000000E+00 0. -1.
          2    1    1    2  501    0  0.25203049603E+00 -0.21600134039E+01 -0.56542370083E+01  0.60580178214E+01  0.25500000000E-02 0.  1.
         -2    1    1    2    0  501 -0.25203049603E+00  0.21600134039E+01 -0.20860293472E+02  0.20973340876E+02  0.25500000000E-02 0. -1.
<mgrwt>
<rscale>  0 0.21746687E+01</rscale>
<asrwt>0</asrwt>
<pdfrwt beam="1">0</pdfrwt>
<pdfrwt beam="2">0</pdfrwt>
<totfact> 0.21661927E+12</totfact>
</mgrwt>
</event>
<event>
 4    1  0.3281603E+006  0.2043942E+01  0.7546771E-02  0.2951681E+00
         22   -1    0    0    0    0  0.00000000000E+00  0.00000000000E+00  0.21046436592E+01  0.21046436592E+01  0.00000000000E+00 0.  1.
         22   -1    0    0    0    0 -0.00000000000E+00 -0.00000000000E+00 -0.22433061294E+01  0.22433061294E+01  0.00000000000E+00 0. -1.
          2    1    1    2  501    0 -0.15617041761E+00 -0.20379655817E+01  0.66837745282E+00  0.21504482866E+01  0.25500000000E-02 0.  1.
         -2    1    1    2    0  501  0.15617041761E+00  0.20379655817E+01 -0.80703992299E+00  0.21975015020E+01  0.25500000000E-02 0. -1.
<mgrwt>
<rscale>  0 0.20439421E+01</rscale>
<asrwt>0</asrwt>
<pdfrwt beam="1">0</pdfrwt>
<pdfrwt beam="2">0</pdfrwt>
<totfact> 0.39530243E+12</totfact>
</mgrwt>
</event>
<event>
 4    1  0.3281603E+006  0.2849951E+01  0.7546771E-02  0.2571834E+00
         22   -1    0    0    0    0  0.00000000000E+00  0.00000000000E+00  0.16118593782E+02  0.16118593782E+02  0.00000000000E+00 0.  1.
         22   -1    0    0    0    0 -0.00000000000E+00 -0.00000000000E+00 -0.63036342710E+00  0.63036342710E+00  0.00000000000E+00 0. -1.
          2    1    1    2  501    0  0.98424830642E+00 -0.26745970331E+01  0.39931914225E+01  0.49058942363E+01  0.25500000000E-02 0. -1.
         -2    1    1    2    0  501 -0.98424830642E+00  0.26745970331E+01  0.11495038932E+02  0.11843062973E+02  0.25500000000E-02 0.  1.
<mgrwt>
<rscale>  0 0.28499510E+01</rscale>
<asrwt>0</asrwt>
<pdfrwt beam="1">0</pdfrwt>
<pdfrwt beam="2">0</pdfrwt>
<totfact> 0.14965154E+12</totfact>
</mgrwt>
</event>
<event>
 4    1  0.3281603E+006  0.2256891E+01  0.7546771E-02  0.2826491E+00
         22   -1    0    0    0    0  0.00000000000E+00  0.00000000000E+00  0.23276504574E+00  0.23276504574E+00  0.00000000000E+00 0.  1.
         22   -1    0    0    0    0 -0.00000000000E+00 -0.00000000000E+00 -0.47174386569E+02  0.47174386569E+02  0.00000000000E+00 0. -1.
          2    1    1    2  501    0 -0.13527640686E+01  0.18065379567E+01 -0.61148536949E+01  0.65180512599E+01  0.25500000000E-02 0.  1.
         -2    1    1    2    0  501  0.13527640686E+01 -0.18065379567E+01 -0.40826767828E+02  0.40889100355E+02  0.25500000000E-02 0. -1.
<mgrwt>
<rscale>  0 0.22568909E+01</rscale>
<asrwt>0</asrwt>
<pdfrwt beam="1">0</pdfrwt>
<pdfrwt beam="2">0</pdfrwt>
<totfact> 0.11736071E+12</totfact>
</mgrwt>
</event>
<event>
 4    1  0.3281603E+006  0.5130933E+01  0.7546771E-02  0.2107692E+00
         22   -1    0    0    0    0  0.00000000000E+00  0.00000000000E+00  0.36937760967E+01  0.36937760967E+01  0.00000000000E+00 0.  1.
         22   -1    0    0    0    0 -0.00000000000E+00 -0.00000000000E+00 -0.83184966422E+01  0.83184966422E+01  0.00000000000E+00 0. -1.
          2    1    1    2  501    0 -0.28443144385E-01 -0.51308531108E+01 -0.39496329293E-01  0.51310845949E+01  0.25500000000E-02 0. -1.
         -2    1    1    2    0  501  0.28443144385E-01  0.51308531108E+01 -0.45852242162E+01  0.68811881440E+01  0.25500000000E-02 0.  1.
<mgrwt>
<rscale>  0 0.51309326E+01</rscale>
<asrwt>0</asrwt>
<pdfrwt beam="1">0</pdfrwt>
<pdfrwt beam="2">0</pdfrwt>
<totfact> 0.43697539E+11</totfact>
</mgrwt>
</event>
<event>
 4    1  0.3281603E+006  0.2591999E+01  0.7546771E-02  0.2669309E+00
         22   -1    0    0    0    0  0.00000000000E+00  0.00000000000E+00  0.10710082992E+01  0.10710082992E+01  0.00000000000E+00 0. -1.
         22   -1    0    0    0    0 -0.00000000000E+00 -0.00000000000E+00 -0.62748199051E+01  0.62748199051E+01  0.00000000000E+00 0.  1.
          2    1    1    2  501    0  0.16766999142E+01  0.19766462916E+01 -0.25397508427E+01  0.36288833006E+01  0.25500000000E-02 0.  1.
         -2    1    1    2    0  501 -0.16766999142E+01 -0.19766462916E+01 -0.26640607633E+01  0.37169449037E+01  0.25500000000E-02 0. -1.
<mgrwt>
<rscale>  0 0.25919992E+01</rscale>
<asrwt>0</asrwt>
<pdfrwt beam="1">0</pdfrwt>
<pdfrwt beam="2">0</pdfrwt>
<totfact> 0.25679952E+12</totfact>
</mgrwt>
</event>
<event>
 4    1  0.3281603E+006  0.2305861E+01  0.7546771E-02  0.2800844E+00
         22   -1    0    0    0    0  0.00000000000E+00  0.00000000000E+00  0.14229657176E+01  0.14229657176E+01  0.00000000000E+00 0.  1.
         22   -1    0    0    0    0 -0.00000000000E+00 -0.00000000000E+00 -0.38806705285E+01  0.38806705285E+01  0.00000000000E+00 0. -1.
          2    1    1    2  501    0 -0.64568790035E+00 -0.22136115192E+01 -0.71783023057E+00  0.24150104689E+01  0.25500000000E-02 0.  1.
         -2    1    1    2    0  501  0.64568790035E+00  0.22136115192E+01 -0.17398745803E+01  0.28886257771E+01  0.25500000000E-02 0. -1.
<mgrwt>
<rscale>  0 0.23058611E+01</rscale>
<asrwt>0</asrwt>
<pdfrwt beam="1">0</pdfrwt>
<pdfrwt beam="2">0</pdfrwt>
<totfact> 0.32745158E+12</totfact>
</mgrwt>
</event>
<event>
 4    1  0.3281603E+006  0.2165571E+01  0.7546771E-02  0.2877271E+00
         22   -1    0    0    0    0  0.00000000000E+00  0.00000000000E+00  0.74479085620E+00  0.74479085620E+00  0.00000000000E+00 0. -1.
         22   -1    0    0    0    0 -0.00000000000E+00 -0.00000000000E+00 -0.10808163959E+02  0.10808163959E+02  0.00000000000E+00 0.  1.
          2    1    1    2  501    0  0.49703030192E+00 -0.21077599491E+01 -0.12996352481E+01  0.25256186182E+01  0.25500000000E-02 0. -1.
         -2    1    1    2    0  501 -0.49703030192E+00  0.21077599491E+01 -0.87637378544E+01  0.90273361967E+01  0.25500000000E-02 0.  1.
<mgrwt>
<rscale>  0 0.21655710E+01</rscale>
<asrwt>0</asrwt>
<pdfrwt beam="1">0</pdfrwt>
<pdfrwt beam="2">0</pdfrwt>
<totfact> 0.20199059E+12</totfact>
</mgrwt>
</event>
