<event>
 4    1  0.3064748E+006  0.2792410E+01  0.7546771E-02  0.2592151E+00
         22   -1    0    0    0    0  0.00000000000E+00  0.00000000000E+00  0.34998164576E+01  0.34998164576E+01  0.00000000000E+00 0.  1.
         22   -1    0    0    0    0 -0.00000000000E+00 -0.00000000000E+00 -0.30229516367E+01  0.30229516367E+01  0.00000000000E+00 0. -1.
          2    1    1    2  501    0  0.26848286113E+01 -0.76762251889E+00 -0.14340419648E+01  0.31391132287E+01  0.25500000000E-02 0. -1.
         -2    1    1    2    0  501 -0.26848286113E+01  0.76762251889E+00  0.19109067857E+01  0.33836548656E+01  0.25500000000E-02 0.  1.
<mgrwt>
<rscale>  0 0.27924103E+01</rscale>
<asrwt>0</asrwt>
<pdfrwt beam="1">0</pdfrwt>
<pdfrwt beam="2">0</pdfrwt>
<totfact> 0.15442617E+12</totfact>
</mgrwt>
</event>
<event>
 4    1  0.3064748E+006  0.2436312E+01  0.7546771E-02  0.2737292E+00
         22   -1    0    0    0    0  0.00000000000E+00  0.00000000000E+00  0.25682067204E+01  0.25682067204E+01  0.00000000000E+00 0.  1.
         22   -1    0    0    0    0 -0.00000000000E+00 -0.00000000000E+00 -0.30105236321E+01  0.30105236321E+01  0.00000000000E+00 0. -1.
          2    1    1    2  501    0  0.19668058790E+01 -0.14378051496E+01  0.11232348486E+01  0.26827731998E+01  0.25500000000E-02 0.  1.
         -2    1    1    2    0  501 -0.19668058790E+01  0.14378051496E+01 -0.15655517603E+01  0.28959571527E+01  0.25500000000E-02 0. -1.
<mgrwt>
<rscale>  0 0.24363119E+01</rscale>
<asrwt>0</asrwt>
<pdfrwt beam="1">0</pdfrwt>
<pdfrwt beam="2">0</pdfrwt>
<totfact> 0.22275502E+12</totfact>
</mgrwt>
</event>
<event>
 4    1  0.3064748E+006  0.2155390E+01  0.7546771E-02  0.2883187E+00
         22   -1    0    0    0    0  0.00000000000E+00  0.00000000000E+00  0.27416639118E+01  0.27416639118E+01  0.00000000000E+00 0. -1.
         22   -1    0    0    0    0 -0.00000000000E+00 -0.00000000000E+00 -0.56414436554E+01  0.56414436554E+01  0.00000000000E+00 0.  1.
          2    1    1    2  501    0  0.21391215884E+01 -0.26431106918E+00  0.20561044750E+01  0.29788040597E+01  0.25500000000E-02 0. -1.
         -2    1    1    2    0  501 -0.21391215884E+01  0.26431106918E+00 -0.49558842186E+01  0.54043035076E+01  0.25500000000E-02 0.  1.
<mgrwt>
<rscale>  0 0.21553905E+01</rscale>
<asrwt>0</asrwt>
<pdfrwt beam="1">0</pdfrwt>
<pdfrwt beam="2">0</pdfrwt>
<totfact> 0.98511065E+11</totfact>
</mgrwt>
</event>
<event>
 4    1  0.3064748E+006  0.2192638E+01  0.7546771E-02  0.2861797E+00
         22   -1    0    0    0    0  0.00000000000E+00  0.00000000000E+00  0.38164426991E+01  0.38164426991E+01  0.00000000000E+00 0. -1.
         22   -1    0    0    0    0 -0.00000000000E+00 -0.00000000000E+00 -0.13792885084E+01  0.13792885084E+01  0.00000000000E+00 0.  1.
          2    1    1    2  501    0  0.19990660275E+01  0.90077207559E+00  0.19834539533E+01  0.29566452952E+01  0.25500000000E-02 0. -1.
         -2    1    1    2    0  501 -0.19990660275E+01 -0.90077207559E+00  0.45370023741E+00  0.22390859123E+01  0.25500000000E-02 0.  1.
<mgrwt>
<rscale>  0 0.21926381E+01</rscale>
<asrwt>0</asrwt>
<pdfrwt beam="1">0</pdfrwt>
<pdfrwt beam="2">0</pdfrwt>
<totfact> 0.34611244E+12</totfact>
</mgrwt>
</event>
<event>
 4    1  0.3064748E+006  0.2551557E+01  0.7546771E-02  0.2686228E+00
         22   -1    0    0    0    0  0.00000000000E+00  0.00000000000E+00  0.18982726912E+02  0.18982726912E+02  0.00000000000E+00 0.  1.
         22   -1    0    0    0    0 -0.00000000000E+00 -0.00000000000E+00 -0.55490762494E+00  0.55490762494E+00  0.00000000000E+00 0. -1.
          2    1    1    2  501    0  0.25280962849E+01  0.34520300040E+00  0.15251158720E+02  0.15463126616E+02  0.25500000000E-02 0. -1.
         -2    1    1    2    0  501 -0.25280962849E+01 -0.34520300040E+00  0.31766605671E+01  0.40745079210E+01  0.25500000000E-02 0.  1.
<mgrwt>
<rscale>  0 0.25515569E+01</rscale>
<asrwt>0</asrwt>
<pdfrwt beam="1">0</pdfrwt>
<pdfrwt beam="2">0</pdfrwt>
<totfact> 0.14117069E+12</totfact>
</mgrwt>
</event>
<event>
 4    1  0.3064748E+006  0.3123752E+01  0.7546771E-02  0.2484463E+00
         22   -1    0    0    0    0  0.00000000000E+00  0.00000000000E+00  0.28919801006E+00  0.28919801006E+00  0.00000000000E+00 0.  1.
         22   -1    0    0    0    0 -0.00000000000E+00 -0.00000000000E+00 -0.33741659251E+02  0.33741659251E+02  0.00000000000E+00 0. -1.
          2    1    1    2  501    0 -0.27851562805E+01 -0.14144697056E+01 -0.16802129496E+02  0.17090037512E+02  0.25500000000E-02 0.  1.
         -2    1    1    2    0  501  0.27851562805E+01  0.14144697056E+01 -0.16650331744E+02  0.16940819749E+02  0.25500000000E-02 0. -1.
<mgrwt>
<rscale>  0 0.31237520E+01</rscale>
<asrwt>0</asrwt>
<pdfrwt beam="1">0</pdfrwt>
<pdfrwt beam="2">0</pdfrwt>
<totfact> 0.14220949E+12</totfact>
</mgrwt>
</event>
<event>
 4    1  0.3064748E+006  0.3512851E+01  0.7546771E-02  0.2381364E+00
         22   -1    0    0    0    0  0.00000000000E+00  0.00000000000E+00  0.38535695685E+02  0.38535695685E+02  0.00000000000E+00 0. -1.
         22   -1    0    0    0    0 -0.00000000000E+00 -0.00000000000E+00 -0.48809416443E+00  0.48809416443E+00  0.00000000000E+00 0.  1.
          2    1    1    2  501    0  0.23488755475E+00 -0.35049881330E+01  0.30466597615E+02  0.30668447804E+02  0.25500000000E-02 0. -1.
         -2    1    1    2    0  501 -0.23488755475E+00  0.35049881330E+01  0.75810039058E+01  0.83553420455E+01  0.25500000000E-02 0.  1.
<mgrwt>
<rscale>  0 0.35128508E+01</rscale>
<asrwt>0</asrwt>
<pdfrwt beam="1">0</pdfrwt>
<pdfrwt beam="2">0</pdfrwt>
<totfact> 0.66513797E+11</totfact>
</mgrwt>
</event>
<event>
 4    1  0.3064748E+006  0.2600506E+01  0.7546771E-02  0.2665813E+00
         22   -1    0    0    0    0  0.00000000000E+00  0.00000000000E+00  0.12219683276E+01  0.12219683276E+01  0.00000000000E+00 0. -1.
         22   -1    0    0    0    0 -0.00000000000E+00 -0.00000000000E+00 -0.18820850549E+02  0.18820850549E+02  0.00000000000E+00 0.  1.
          2    1    1    2  501    0 -0.21922272474E+01 -0.13988437761E+01 -0.37935064350E+00  0.26280292288E+01  0.25500000000E-02 0. -1.
         -2    1    1    2    0  501  0.21922272474E+01  0.13988437761E+01 -0.17219531578E+02  0.17414789648E+02  0.25500000000E-02 0.  1.
<mgrwt>
<rscale>  0 0.26005059E+01</rscale>
<asrwt>0</asrwt>
<pdfrwt beam="1">0</pdfrwt>
<pdfrwt beam="2">0</pdfrwt>
<totfact> 0.58092792E+11</totfact>
</mgrwt>
</event>
<event>
 4    1  0.3064748E+006  0.2680467E+01  0.7546771E-02  0.2633946E+00
         22   -1    0    0    0    0  0.00000000000E+00  0.00000000000E+00  0.79955694408E-01  0.79955694408E-01  0.00000000000E+00 0.  1.
         22   -1    0    0    0    0 -0.00000000000E+00 -0.00000000000E+00 -0.10248906935E+03  0.10248906935E+03  0.00000000000E+00 0. -1.
          2    1    1    2  501    0  0.26789480341E+01  0.90181688687E-01 -0.33202784788E+02  0.33310806347E+02  0.25500000000E-02 0.  1.
         -2    1    1    2    0  501 -0.26789480341E+01 -0.90181688687E-01 -0.69206328864E+02  0.69258218693E+02  0.25500000000E-02 0. -1.
<mgrwt>
<rscale>  0 0.26804667E+01</rscale>
<asrwt>0</asrwt>
<pdfrwt beam="1">0</pdfrwt>
<pdfrwt beam="2">0</pdfrwt>
<totfact> 0.13408447E+12</totfact>
</mgrwt>
</event>
<event>
 4    1  0.3064748E+006  0.3322267E+01  0.7546771E-02  0.2429206E+00
         22   -1    0    0    0    0  0.00000000000E+00  0.00000000000E+00  0.35225646112E+01  0.35225646112E+01  0.00000000000E+00 0. -1.
         22   -1    0    0    0    0 -0.00000000000E+00 -0.00000000000E+00 -0.31471603145E+01  0.31471603145E+01  0.00000000000E+00 0.  1.
          2    1    1    2  501    0  0.22244905879E+01  0.24676090484E+01  0.40854317879E+00  0.33472924615E+01  0.25500000000E-02 0. -1.
         -2    1    1    2    0  501 -0.22244905879E+01 -0.24676090484E+01 -0.33138882062E-01  0.33224324642E+01  0.25500000000E-02 0.  1.
<mgrwt>
<rscale>  0 0.33222672E+01</rscale>
<asrwt>0</asrwt>
<pdfrwt beam="1">0</pdfrwt>
<pdfrwt beam="2">0</pdfrwt>
<totfact> 0.14621184E+12</totfact>
</mgrwt>
</event>
<event>
 4    1  0.3064748E+006  0.2531037E+01  0.7546771E-02  0.2695003E+00
         22   -1    0    0    0    0  0.00000000000E+00  0.00000000000E+00  0.53321059663E+00  0.53321059663E+00  0.00000000000E+00 0. -1.
         22   -1    0    0    0    0 -0.00000000000E+00 -0.00000000000E+00 -0.13394812431E+02  0.13394812431E+02  0.00000000000E+00 0.  1.
          2    1    1    2  501    0  0.24522866045E+01 -0.62644253286E+00 -0.41951035593E+01  0.48994938732E+01  0.25500000000E-02 0. -1.
         -2    1    1    2    0  501 -0.24522866045E+01  0.62644253286E+00 -0.86664982745E+01  0.90285291539E+01  0.25500000000E-02 0.  1.
<mgrwt>
<rscale>  0 0.25310366E+01</rscale>
<asrwt>0</asrwt>
<pdfrwt beam="1">0</pdfrwt>
<pdfrwt beam="2">0</pdfrwt>
<totfact> 0.22708539E+12</totfact>
</mgrwt>
</event>
<event>
 4    1  0.3064748E+006  0.3920540E+01  0.7546771E-02  0.2292746E+00
         22   -1    0    0    0    0  0.00000000000E+00  0.00000000000E+00  0.52896261639E+02  0.52896261639E+02  0.00000000000E+00 0. -1.
         22   -1    0    0    0    0 -0.00000000000E+00 -0.00000000000E+00 -0.38552138625E+00  0.38552138625E+00  0.00000000000E+00 0.  1.
          2    1    1    2  501    0 -0.45879592403E+00 -0.38936013949E+01  0.39475956884E+02  0.39670162640E+02  0.25500000000E-02 0. -1.
         -2    1    1    2    0  501  0.45879592403E+00  0.38936013949E+01  0.13034783369E+02  0.13611620384E+02  0.25500000000E-02 0.  1.
<mgrwt>
<rscale>  0 0.39205398E+01</rscale>
<asrwt>0</asrwt>
<pdfrwt beam="1">0</pdfrwt>
<pdfrwt beam="2">0</pdfrwt>
<totfact> 0.57316934E+11</totfact>
</mgrwt>
</event>
<event>
 4    1  0.3064748E+006  0.2881567E+01  0.7546771E-02  0.2560984E+00
         22   -1    0    0    0    0  0.00000000000E+00  0.00000000000E+00  0.24705328765E+01  0.24705328765E+01  0.00000000000E+00 0.  1.
         22   -1    0    0    0    0 -0.00000000000E+00 -0.00000000000E+00 -0.48669129015E+01  0.48669129015E+01  0.00000000000E+00 0. -1.
          2    1    1    2  501    0  0.11627882811E+01  0.26365406769E+01  0.84256028441E+00  0.30022221209E+01  0.25500000000E-02 0.  1.
         -2    1    1    2    0  501 -0.11627882811E+01 -0.26365406769E+01 -0.32389403094E+01  0.43352236572E+01  0.25500000000E-02 0. -1.
<mgrwt>
<rscale>  0 0.28815673E+01</rscale>
<asrwt>0</asrwt>
<pdfrwt beam="1">0</pdfrwt>
<pdfrwt beam="2">0</pdfrwt>
<totfact> 0.13249796E+12</totfact>
</mgrwt>
</event>
<event>
 4    1  0.3064748E+006  0.2052899E+01  0.7546771E-02  0.2945910E+00
         22   -1    0    0    0    0  0.00000000000E+00  0.00000000000E+00  0.50719361190E+01  0.50719361190E+01  0.00000000000E+00 0.  1.
         22   -1    0    0    0    0 -0.00000000000E+00 -0.00000000000E+00 -0.13165909394E+01  0.13165909394E+01  0.00000000000E+00 0. -1.
          2    1    1    2  501    0 -0.20243088637E+01 -0.34141208848E+00  0.38177293550E+01  0.43346802097E+01  0.25500000000E-02 0.  1.
         -2    1    1    2    0  501  0.20243088637E+01  0.34141208848E+00 -0.62384175382E-01  0.20538468487E+01  0.25500000000E-02 0. -1.
<mgrwt>
<rscale>  0 0.20528992E+01</rscale>
<asrwt>0</asrwt>
<pdfrwt beam="1">0</pdfrwt>
<pdfrwt beam="2">0</pdfrwt>
<totfact> 0.26102126E+12</totfact>
</mgrwt>
</event>
<event>
 4    1  0.3064748E+006  0.2045505E+01  0.7546771E-02  0.2950671E+00
         22   -1    0    0    0    0  0.00000000000E+00  0.00000000000E+00  0.29860511694E+01  0.29860511694E+01  0.00000000000E+00 0.  1.
         22   -1    0    0    0    0 -0.00000000000E+00 -0.00000000000E+00 -0.17516189619E+01  0.17516189619E+01  0.00000000000E+00 0. -1.
          2    1    1    2  501    0  0.19007265141E+01 -0.75585959115E+00 -0.44228449555E+00  0.20927749713E+01  0.25500000000E-02 0. -1.
         -2    1    1    2    0  501 -0.19007265141E+01  0.75585959115E+00  0.16767167031E+01  0.26448951601E+01  0.25500000000E-02 0.  1.
<mgrwt>
<rscale>  0 0.20455052E+01</rscale>
<asrwt>0</asrwt>
<pdfrwt beam="1">0</pdfrwt>
<pdfrwt beam="2">0</pdfrwt>
<totfact> 0.35038633E+12</totfact>
</mgrwt>
</event>
<event>
 4    1  0.3064748E+006  0.2210687E+01  0.7546771E-02  0.2851682E+00
         22   -1    0    0    0    0  0.00000000000E+00  0.00000000000E+00  0.74964988409E+00  0.74964988409E+00  0.00000000000E+00 0.  1.
         22   -1    0    0    0    0 -0.00000000000E+00 -0.00000000000E+00 -0.65950611591E+01  0.65950611591E+01  0.00000000000E+00 0. -1.
          2    1    1    2  501    0 -0.19430289451E+01  0.10544044584E+01 -0.25289093335E+01  0.33589461387E+01  0.25500000000E-02 0.  1.
         -2    1    1    2    0  501  0.19430289451E+01 -0.10544044584E+01 -0.33165019414E+01  0.39857649044E+01  0.25500000000E-02 0. -1.
<mgrwt>
<rscale>  0 0.22106869E+01</rscale>
<asrwt>0</asrwt>
<pdfrwt beam="1">0</pdfrwt>
<pdfrwt beam="2">0</pdfrwt>
<totfact> 0.36339807E+12</totfact>
</mgrwt>
</event>
<event>
 4    1  0.3064748E+006  0.6201961E+01  0.7546771E-02  0.2002036E+00
         22   -1    0    0    0    0  0.00000000000E+00  0.00000000000E+00  0.21148061455E+02  0.21148061455E+02  0.00000000000E+00 0. -1.
         22   -1    0    0    0    0 -0.00000000000E+00 -0.00000000000E+00 -0.18189175836E+01  0.18189175836E+01  0.00000000000E+00 0.  1.
          2    1    1    2  501    0 -0.26964534728E+01  0.55851093360E+01  0.95764203293E+01  0.11409300612E+02  0.25500000000E-02 0.  1.
         -2    1    1    2    0  501  0.26964534728E+01 -0.55851093360E+01  0.97527235424E+01  0.11557678427E+02  0.25500000000E-02 0. -1.
<mgrwt>
<rscale>  0 0.62019605E+01</rscale>
<asrwt>0</asrwt>
<pdfrwt beam="1">0</pdfrwt>
<pdfrwt beam="2">0</pdfrwt>
<totfact> 0.31786720E+11</totfact>
</mgrwt>
</event>
<event>
 4    1  0.3064748E+006  0.7565713E+01  0.7546771E-02  0.1902429E+00
         22   -1    0    0    0    0  0.00000000000E+00  0.00000000000E+00  0.67673421268E+02  0.67673421268E+02  0.00000000000E+00 0. -1.
         22   -1    0    0    0    0 -0.00000000000E+00 -0.00000000000E+00 -0.84590523161E+00  0.84590523161E+00  0.00000000000E+00 0.  1.
          2    1    1    2  501    0  0.37699860261E+01  0.65595128107E+01  0.33743146376E+02  0.34580918681E+02  0.25500000000E-02 0. -1.
         -2    1    1    2    0  501 -0.37699860261E+01 -0.65595128107E+01  0.33084369660E+02  0.33938407818E+02  0.25500000000E-02 0.  1.
<mgrwt>
<rscale>  0 0.75657128E+01</rscale>
<asrwt>0</asrwt>
<pdfrwt beam="1">0</pdfrwt>
<pdfrwt beam="2">0</pdfrwt>
<totfact> 0.16939783E+11</totfact>
</mgrwt>
</event>
<event>
 4    1  0.3064748E+006  0.8920360E+01  0.7546771E-02  0.1827335E+00
         22   -1    0    0    0    0  0.00000000000E+00  0.00000000000E+00  0.68182203276E+01  0.68182203276E+01  0.00000000000E+00 0.  1.
         22   -1    0    0    0    0 -0.00000000000E+00 -0.00000000000E+00 -0.11872501175E+02  0.11872501175E+02  0.00000000000E+00 0. -1.
          2    1    1    2  501    0  0.83302293825E+01 -0.31906265867E+01 -0.37457876075E+01  0.96749031460E+01  0.25500000000E-02 0. -1.
         -2    1    1    2    0  501 -0.83302293825E+01  0.31906265867E+01 -0.13084932400E+01  0.90158183568E+01  0.25500000000E-02 0.  1.
<mgrwt>
<rscale>  0 0.89203602E+01</rscale>
<asrwt>0</asrwt>
<pdfrwt beam="1">0</pdfrwt>
<pdfrwt beam="2">0</pdfrwt>
<totfact> 0.13744795E+11</totfact>
</mgrwt>
</event>
<event>
 4    1  0.3064748E+006  0.4443179E+01  0.7546771E-02  0.2199820E+00
         22   -1    0    0    0    0  0.00000000000E+00  0.00000000000E+00  0.66768318379E+01  0.66768318379E+01  0.00000000000E+00 0.  1.
         22   -1    0    0    0    0 -0.00000000000E+00 -0.00000000000E+00 -0.31936445918E+01  0.31936445918E+01  0.00000000000E+00 0. -1.
          2    1    1    2  501    0 -0.43477309624E+01  0.91600476528E+00  0.39750824178E+00  0.44609246302E+01  0.25500000000E-02 0. -1.
         -2    1    1    2    0  501  0.43477309624E+01 -0.91600476528E+00  0.30856790043E+01  0.54095517995E+01  0.25500000000E-02 0.  1.
<mgrwt>
<rscale>  0 0.44431786E+01</rscale>
<asrwt>0</asrwt>
<pdfrwt beam="1">0</pdfrwt>
<pdfrwt beam="2">0</pdfrwt>
<totfact> 0.67445448E+11</totfact>
</mgrwt>
</event>
<event>
 4    1  0.3064748E+006  0.2103550E+01  0.7546771E-02  0.2914172E+00
         22   -1    0    0    0    0  0.00000000000E+00  0.00000000000E+00  0.65329589758E-01  0.65329589758E-01  0.00000000000E+00 0. -1.
         22   -1    0    0    0    0 -0.00000000000E+00 -0.00000000000E+00 -0.73585488310E+02  0.73585488310E+02  0.00000000000E+00 0.  1.
          2    1    1    2  501    0 -0.20575677144E+01 -0.43741417979E+00 -0.26374082276E+02  0.26457836995E+02  0.25500000000E-02 0. -1.
         -2    1    1    2    0  501  0.20575677144E+01  0.43741417979E+00 -0.47146076444E+02  0.47192980905E+02  0.25500000000E-02 0.  1.
<mgrwt>
<rscale>  0 0.21035500E+01</rscale>
<asrwt>0</asrwt>
<pdfrwt beam="1">0</pdfrwt>
<pdfrwt beam="2">0</pdfrwt>
<totfact> 0.26524540E+12</totfact>
</mgrwt>
</event>
<event>
 4    1  0.3064748E+006  0.2042094E+01  0.7546771E-02  0.2952878E+00
         22   -1    0    0    0    0  0.00000000000E+00  0.00000000000E+00  0.60508299626E+01  0.60508299626E+01  0.00000000000E+00 0. -1.
         22   -1    0    0    0    0 -0.00000000000E+00 -0.00000000000E+00 -0.69063232165E+00  0.69063232165E+00  0.00000000000E+00 0.  1.
          2    1    1    2  501    0 -0.17509347856E+01 -0.10508892652E+01  0.25258466639E+01  0.32480838572E+01  0.25500000000E-02 0. -1.
         -2    1    1    2    0  501  0.17509347856E+01  0.10508892652E+01  0.28343509771E+01  0.34933784271E+01  0.25500000000E-02 0.  1.
<mgrwt>
<rscale>  0 0.20420939E+01</rscale>
<asrwt>0</asrwt>
<pdfrwt beam="1">0</pdfrwt>
<pdfrwt beam="2">0</pdfrwt>
<totfact> 0.44197855E+12</totfact>
</mgrwt>
</event>
<event>
 4    1  0.3064748E+006  0.4361820E+01  0.7546771E-02  0.2213043E+00
         22   -1    0    0    0    0  0.00000000000E+00  0.00000000000E+00  0.15668130002E+01  0.15668130002E+01  0.00000000000E+00 0.  1.
         22   -1    0    0    0    0 -0.00000000000E+00 -0.00000000000E+00 -0.21977780592E+02  0.21977780592E+02  0.00000000000E+00 0. -1.
          2    1    1    2  501    0  0.26290641704E+00  0.43538890351E+01 -0.23303791425E+01  0.49453152543E+01  0.25500000000E-02 0.  1.
         -2    1    1    2    0  501 -0.26290641704E+00 -0.43538890351E+01 -0.18080588449E+02  0.18599278338E+02  0.25500000000E-02 0. -1.
<mgrwt>
<rscale>  0 0.43618203E+01</rscale>
<asrwt>0</asrwt>
<pdfrwt beam="1">0</pdfrwt>
<pdfrwt beam="2">0</pdfrwt>
<totfact> 0.35979882E+11</totfact>
</mgrwt>
</event>
<event>
 4    1  0.3064748E+006  0.2191780E+01  0.7546771E-02  0.2862283E+00
         22   -1    0    0    0    0  0.00000000000E+00  0.00000000000E+00  0.16138991068E+02  0.16138991068E+02  0.00000000000E+00 0.  1.
         22   -1    0    0    0    0 -0.00000000000E+00 -0.00000000000E+00 -0.16879797065E+01  0.16879797065E+01  0.00000000000E+00 0. -1.
          2    1    1    2  501    0 -0.19931916530E+01 -0.91163495118E+00  0.15315004534E+02  0.15471045912E+02  0.25500000000E-02 0.  1.
         -2    1    1    2    0  501  0.19931916530E+01  0.91163495118E+00 -0.86399317264E+00  0.23559248618E+01  0.25500000000E-02 0. -1.
<mgrwt>
<rscale>  0 0.21917796E+01</rscale>
<asrwt>0</asrwt>
<pdfrwt beam="1">0</pdfrwt>
<pdfrwt beam="2">0</pdfrwt>
<totfact> 0.48473275E+11</totfact>
</mgrwt>
</event>
<event>
 4    1  0.3064748E+006  0.3925837E+01  0.7546771E-02  0.2291699E+00
         22   -1    0    0    0    0  0.00000000000E+00  0.00000000000E+00  0.28827274147E+01  0.28827274147E+01  0.00000000000E+00 0.  1.
         22   -1    0    0    0    0 -0.00000000000E+00 -0.00000000000E+00 -0.54979403188E+02  0.54979403188E+02  0.00000000000E+00 0. -1.
          2    1    1    2  501    0  0.27900585173E+01 -0.27618400963E+01  0.14400786153E+01  0.41816288893E+01  0.25500000000E-02 0.  1.
         -2    1    1    2    0  501 -0.27900585173E+01  0.27618400963E+01 -0.53536754388E+02  0.53680501713E+02  0.25500000000E-02 0. -1.
<mgrwt>
<rscale>  0 0.39258367E+01</rscale>
<asrwt>0</asrwt>
<pdfrwt beam="1">0</pdfrwt>
<pdfrwt beam="2">0</pdfrwt>
<totfact> 0.54503707E+10</totfact>
</mgrwt>
</event>
<event>
 4    1  0.3064748E+006  0.4800906E+01  0.7546771E-02  0.2147546E+00
         22   -1    0    0    0    0  0.00000000000E+00  0.00000000000E+00  0.10628024700E+03  0.10628024700E+03  0.00000000000E+00 0.  1.
         22   -1    0    0    0    0 -0.00000000000E+00 -0.00000000000E+00 -0.43514714653E+00  0.43514714653E+00  0.00000000000E+00 0. -1.
          2    1    1    2  501    0  0.27334001842E+01 -0.39467977619E+01  0.90713339282E+02  0.90840291828E+02  0.25500000000E-02 0.  1.
         -2    1    1    2    0  501 -0.27334001842E+01  0.39467977619E+01  0.15131760571E+02  0.15875102319E+02  0.25500000000E-02 0. -1.
<mgrwt>
<rscale>  0 0.48009057E+01</rscale>
<asrwt>0</asrwt>
<pdfrwt beam="1">0</pdfrwt>
<pdfrwt beam="2">0</pdfrwt>
<totfact> 0.19260813E+11</totfact>
</mgrwt>
</event>
<event>
 4    1  0.3064748E+006  0.2381456E+01  0.7546771E-02  0.2763217E+00
         22   -1    0    0    0    0  0.00000000000E+00  0.00000000000E+00  0.18673487435E+01  0.18673487435E+01  0.00000000000E+00 0.  1.
         22   -1    0    0    0    0 -0.00000000000E+00 -0.00000000000E+00 -0.40376090199E+01  0.40376090199E+01  0.00000000000E+00 0. -1.
          2    1    1    2  501    0  0.11292578985E+01 -0.20966887313E+01  0.38458837668E+00  0.24123104608E+01  0.25500000000E-02 0.  1.
         -2    1    1    2    0  501 -0.11292578985E+01  0.20966887313E+01 -0.25548486530E+01  0.34926473025E+01  0.25500000000E-02 0. -1.
<mgrwt>
<rscale>  0 0.23814562E+01</rscale>
<asrwt>0</asrwt>
<pdfrwt beam="1">0</pdfrwt>
<pdfrwt beam="2">0</pdfrwt>
<totfact> 0.22848516E+12</totfact>
</mgrwt>
</event>
<event>
 4    1  0.3064748E+006  0.3104234E+01  0.7546771E-02  0.2490233E+00
         22   -1    0    0    0    0  0.00000000000E+00  0.00000000000E+00  0.58186517206E+01  0.58186517206E+01  0.00000000000E+00 0.  1.
         22   -1    0    0    0    0 -0.00000000000E+00 -0.00000000000E+00 -0.26838246592E+01  0.26838246592E+01  0.00000000000E+00 0. -1.
          2    1    1    2  501    0  0.28699145598E+01  0.11831527297E+01  0.41981470222E+01  0.52211784958E+01  0.25500000000E-02 0.  1.
         -2    1    1    2    0  501 -0.28699145598E+01 -0.11831527297E+01 -0.10633199608E+01  0.32812978840E+01  0.25500000000E-02 0. -1.
<mgrwt>
<rscale>  0 0.31042336E+01</rscale>
<asrwt>0</asrwt>
<pdfrwt beam="1">0</pdfrwt>
<pdfrwt beam="2">0</pdfrwt>
<totfact> 0.97351384E+11</totfact>
</mgrwt>
</event>
<event>
 4    1  0.3064748E+006  0.2357395E+01  0.7546771E-02  0.2774946E+00
         22   -1    0    0    0    0  0.00000000000E+00  0.00000000000E+00  0.10082256962E+01  0.10082256962E+01  0.00000000000E+00 0.  1.
         22   -1    0    0    0    0 -0.00000000000E+00 -0.00000000000E+00 -0.55429329521E+01  0.55429329521E+01  0.00000000000E+00 0. -1.
          2    1    1    2  501    0 -0.36538450023E+00  0.23289052368E+01 -0.25121610340E+01  0.34450348327E+01  0.25500000000E-02 0. -1.
         -2    1    1    2    0  501  0.36538450023E+00 -0.23289052368E+01 -0.20225462219E+01  0.31061238156E+01  0.25500000000E-02 0.  1.
<mgrwt>
<rscale>  0 0.23573952E+01</rscale>
<asrwt>0</asrwt>
<pdfrwt beam="1">0</pdfrwt>
<pdfrwt beam="2">0</pdfrwt>
<totfact> 0.31889559E+12</totfact>
</mgrwt>
</event>
<event>
 4    1  0.3064748E+006  0.4054954E+01  0.7546771E-02  0.2266911E+00
         22   -1    0    0    0    0  0.00000000000E+00  0.00000000000E+00  0.60176137318E+01  0.60176137318E+01  0.00000000000E+00 0.  1.
         22   -1    0    0    0    0 -0.00000000000E+00 -0.00000000000E+00 -0.91920039014E+01  0.91920039014E+01  0.00000000000E+00 0. -1.
          2    1    1    2  501    0 -0.38457033179E+01  0.12857732953E+01  0.47878820261E+01  0.62742702981E+01  0.25500000000E-02 0.  1.
         -2    1    1    2    0  501  0.38457033179E+01 -0.12857732953E+01 -0.79622721957E+01  0.89353473350E+01  0.25500000000E-02 0. -1.
<mgrwt>
<rscale>  0 0.40549542E+01</rscale>
<asrwt>0</asrwt>
<pdfrwt beam="1">0</pdfrwt>
<pdfrwt beam="2">0</pdfrwt>
<totfact> 0.21758851E+11</totfact>
</mgrwt>
</event>
<event>
 4    1  0.3064748E+006  0.2939638E+01  0.7546771E-02  0.2541606E+00
         22   -1    0    0    0    0  0.00000000000E+00  0.00000000000E+00  0.53385094757E+01  0.53385094757E+01  0.00000000000E+00 0. -1.
         22   -1    0    0    0    0 -0.00000000000E+00 -0.00000000000E+00 -0.11759371353E+02  0.11759371353E+02  0.00000000000E+00 0.  1.
          2    1    1    2  501    0  0.20169409568E+01  0.21385547678E+01  0.47283437613E+01  0.55676483856E+01  0.25500000000E-02 0. -1.
         -2    1    1    2    0  501 -0.20169409568E+01 -0.21385547678E+01 -0.11149205639E+02  0.11530232444E+02  0.25500000000E-02 0.  1.
<mgrwt>
<rscale>  0 0.29396384E+01</rscale>
<asrwt>0</asrwt>
<pdfrwt beam="1">0</pdfrwt>
<pdfrwt beam="2">0</pdfrwt>
<totfact> 0.18608229E+11</totfact>
</mgrwt>
</event>
<event>
 4    1  0.3064748E+006  0.6113528E+01  0.7546771E-02  0.2009654E+00
         22   -1    0    0    0    0  0.00000000000E+00  0.00000000000E+00  0.69582678518E+01  0.69582678518E+01  0.00000000000E+00 0. -1.
         22   -1    0    0    0    0 -0.00000000000E+00 -0.00000000000E+00 -0.68758726923E+01  0.68758726923E+01  0.00000000000E+00 0.  1.
          2    1    1    2  501    0  0.53175537271E+01 -0.30164283863E+01  0.32768290381E+01  0.69363414635E+01  0.25500000000E-02 0. -1.
         -2    1    1    2    0  501 -0.53175537271E+01  0.30164283863E+01 -0.31944338786E+01  0.68977990807E+01  0.25500000000E-02 0.  1.
<mgrwt>
<rscale>  0 0.61135280E+01</rscale>
<asrwt>0</asrwt>
<pdfrwt beam="1">0</pdfrwt>
<pdfrwt beam="2">0</pdfrwt>
<totfact> 0.25931480E+11</totfact>
</mgrwt>
</event>
<event>
 4    1  0.3064748E+006  0.3169146E+01  0.7546771E-02  0.2471288E+00
         22   -1    0    0    0    0  0.00000000000E+00  0.00000000000E+00  0.27093890713E+00  0.27093890713E+00  0.00000000000E+00 0.  1.
         22   -1    0    0    0    0 -0.00000000000E+00 -0.00000000000E+00 -0.37069919518E+02  0.37069919518E+02  0.00000000000E+00 0. -1.
          2    1    1    2  501    0  0.31356557812E+01 -0.45949955093E+00 -0.18482797646E+02  0.18752527625E+02  0.25500000000E-02 0. -1.
         -2    1    1    2    0  501 -0.31356557812E+01  0.45949955093E+00 -0.18316182965E+02  0.18588330800E+02  0.25500000000E-02 0.  1.
<mgrwt>
<rscale>  0 0.31691456E+01</rscale>
<asrwt>0</asrwt>
<pdfrwt beam="1">0</pdfrwt>
<pdfrwt beam="2">0</pdfrwt>
<totfact> 0.13553859E+12</totfact>
</mgrwt>
</event>
<event>
 4    1  0.3064748E+006  0.2448626E+01  0.7546771E-02  0.2731622E+00
         22   -1    0    0    0    0  0.00000000000E+00  0.00000000000E+00  0.11321565662E+01  0.11321565662E+01  0.00000000000E+00 0. -1.
         22   -1    0    0    0    0 -0.00000000000E+00 -0.00000000000E+00 -0.52961349259E+01  0.52961349259E+01  0.00000000000E+00 0.  1.
          2    1    1    2  501    0 -0.23699332173E+01 -0.61577478451E+00 -0.21041635721E+01  0.32285093898E+01  0.25500000000E-02 0. -1.
         -2    1    1    2    0  501  0.23699332173E+01  0.61577478451E+00 -0.20598147877E+01  0.31997821022E+01  0.25500000000E-02 0.  1.
<mgrwt>
<rscale>  0 0.24486258E+01</rscale>
<asrwt>0</asrwt>
<pdfrwt beam="1">0</pdfrwt>
<pdfrwt beam="2">0</pdfrwt>
<totfact> 0.29482438E+12</totfact>
</mgrwt>
</event>
<event>
 4    1  0.3064748E+006  0.3283934E+01  0.7546771E-02  0.2439415E+00
         22   -1    0    0    0    0  0.00000000000E+00  0.00000000000E+00  0.99576412720E+01  0.99576412720E+01  0.00000000000E+00 0.  1.
         22   -1    0    0    0    0 -0.00000000000E+00 -0.00000000000E+00 -0.10835687792E+01  0.10835687792E+01  0.00000000000E+00 0. -1.
          2    1    1    2  501    0 -0.19337549923E+01 -0.26542059071E+01  0.45624154525E+01  0.56213751548E+01  0.25500000000E-02 0. -1.
         -2    1    1    2    0  501  0.19337549923E+01  0.26542059071E+01  0.43116570404E+01  0.54198348964E+01  0.25500000000E-02 0.  1.
<mgrwt>
<rscale>  0 0.32839342E+01</rscale>
<asrwt>0</asrwt>
<pdfrwt beam="1">0</pdfrwt>
<pdfrwt beam="2">0</pdfrwt>
<totfact> 0.14552240E+12</totfact>
</mgrwt>
</event>
<event>
 4    1  0.3064748E+006  0.2530873E+01  0.7546771E-02  0.2695074E+00
         22   -1    0    0    0    0  0.00000000000E+00  0.00000000000E+00  0.11288263404E+02  0.11288263404E+02  0.00000000000E+00 0. -1.
         22   -1    0    0    0    0 -0.00000000000E+00 -0.00000000000E+00 -0.13646862550E+01  0.13646862550E+01  0.00000000000E+00 0.  1.
          2    1    1    2  501    0  0.15159641803E+01  0.20266133631E+01  0.97973171013E+01  0.10118929687E+02  0.25500000000E-02 0. -1.
         -2    1    1    2    0  501 -0.15159641803E+01 -0.20266133631E+01  0.12626004811E+00  0.25340199726E+01  0.25500000000E-02 0.  1.
<mgrwt>
<rscale>  0 0.25308725E+01</rscale>
<asrwt>0</asrwt>
<pdfrwt beam="1">0</pdfrwt>
<pdfrwt beam="2">0</pdfrwt>
<totfact> 0.95942811E+11</totfact>
</mgrwt>
</event>
<event>
 4    1  0.3064748E+006  0.2002669E+01  0.7546771E-02  0.2978929E+00
         22   -1    0    0    0    0  0.00000000000E+00  0.00000000000E+00  0.17572221399E+01  0.17572221399E+01  0.00000000000E+00 0.  1.
         22   -1    0    0    0    0 -0.00000000000E+00 -0.00000000000E+00 -0.22830267896E+01  0.22830267896E+01  0.00000000000E+00 0. -1.
          2    1    1    2  501    0 -0.52463024033E+00  0.19327288886E+01 -0.29636631550E+00  0.20244795236E+01  0.25500000000E-02 0. -1.
         -2    1    1    2    0  501  0.52463024033E+00 -0.19327288886E+01 -0.22943833412E+00  0.20157694059E+01  0.25500000000E-02 0.  1.
<mgrwt>
<rscale>  0 0.20026693E+01</rscale>
<asrwt>0</asrwt>
<pdfrwt beam="1">0</pdfrwt>
<pdfrwt beam="2">0</pdfrwt>
<totfact> 0.47718955E+12</totfact>
</mgrwt>
</event>
<event>
 4    1  0.3064748E+006  0.2186318E+01  0.7546771E-02  0.2865377E+00
         22   -1    0    0    0    0  0.00000000000E+00  0.00000000000E+00  0.13340141539E+02  0.13340141539E+02  0.00000000000E+00 0.  1.
         22   -1    0    0    0    0 -0.00000000000E+00 -0.00000000000E+00 -0.52280544497E+00  0.52280544497E+00  0.00000000000E+00 0. -1.
          2    1    1    2  501    0 -0.15128039215E+01 -0.15784183817E+01  0.10296652055E+02  0.10526206835E+02  0.25500000000E-02 0.  1.
         -2    1    1    2    0  501  0.15128039215E+01  0.15784183817E+01  0.25206840385E+01  0.33367401483E+01  0.25500000000E-02 0. -1.
<mgrwt>
<rscale>  0 0.21863181E+01</rscale>
<asrwt>0</asrwt>
<pdfrwt beam="1">0</pdfrwt>
<pdfrwt beam="2">0</pdfrwt>
<totfact> 0.23335480E+12</totfact>
</mgrwt>
</event>
<event>
 4    1  0.3064748E+006  0.2218312E+01  0.7546771E-02  0.2847456E+00
         22   -1    0    0    0    0  0.00000000000E+00  0.00000000000E+00  0.28225166438E+02  0.28225166438E+02  0.00000000000E+00 0.  1.
         22   -1    0    0    0    0 -0.00000000000E+00 -0.00000000000E+00 -0.20492397895E+00  0.20492397895E+00  0.00000000000E+00 0. -1.
          2    1    1    2  501    0 -0.15325079480E+01  0.16038452330E+01  0.19501303513E+02  0.19627066652E+02  0.25500000000E-02 0.  1.
         -2    1    1    2    0  501  0.15325079480E+01 -0.16038452330E+01  0.85189389459E+01  0.88030237651E+01  0.25500000000E-02 0. -1.
<mgrwt>
<rscale>  0 0.22183117E+01</rscale>
<asrwt>0</asrwt>
<pdfrwt beam="1">0</pdfrwt>
<pdfrwt beam="2">0</pdfrwt>
<totfact> 0.26252373E+12</totfact>
</mgrwt>
</event>
<event>
 4    1  0.3064748E+006  0.2379782E+01  0.7546771E-02  0.2764026E+00
         22   -1    0    0    0    0  0.00000000000E+00  0.00000000000E+00  0.78857999330E+01  0.78857999330E+01  0.00000000000E+00 0. -1.
         22   -1    0    0    0    0 -0.00000000000E+00 -0.00000000000E+00 -0.11678995148E+01  0.11678995148E+01  0.00000000000E+00 0.  1.
          2    1    1    2  501    0  0.21422476307E+01 -0.10364039275E+01  0.61680543187E+01  0.66112221709E+01  0.25500000000E-02 0. -1.
         -2    1    1    2    0  501 -0.21422476307E+01  0.10364039275E+01  0.54984609951E+00  0.24424772768E+01  0.25500000000E-02 0.  1.
<mgrwt>
<rscale>  0 0.23797825E+01</rscale>
<asrwt>0</asrwt>
<pdfrwt beam="1">0</pdfrwt>
<pdfrwt beam="2">0</pdfrwt>
<totfact> 0.17693559E+12</totfact>
</mgrwt>
</event>
<event>
 4    1  0.3064748E+006  0.2123242E+01  0.7546771E-02  0.2902230E+00
         22   -1    0    0    0    0  0.00000000000E+00  0.00000000000E+00  0.54907249979E+00  0.54907249979E+00  0.00000000000E+00 0.  1.
         22   -1    0    0    0    0 -0.00000000000E+00 -0.00000000000E+00 -0.90473199659E+01  0.90473199659E+01  0.00000000000E+00 0. -1.
          2    1    1    2  501    0 -0.94678738253E+00 -0.19004582696E+01 -0.27898507562E+01  0.35059123958E+01  0.25500000000E-02 0.  1.
         -2    1    1    2    0  501  0.94678738253E+00  0.19004582696E+01 -0.57083967099E+01  0.60904800699E+01  0.25500000000E-02 0. -1.
<mgrwt>
<rscale>  0 0.21232415E+01</rscale>
<asrwt>0</asrwt>
<pdfrwt beam="1">0</pdfrwt>
<pdfrwt beam="2">0</pdfrwt>
<totfact> 0.35390953E+12</totfact>
</mgrwt>
</event>
<event>
 4    1  0.3064748E+006  0.2585614E+01  0.7546771E-02  0.2671948E+00
         22   -1    0    0    0    0  0.00000000000E+00  0.00000000000E+00  0.48452092223E+01  0.48452092223E+01  0.00000000000E+00 0. -1.
         22   -1    0    0    0    0 -0.00000000000E+00 -0.00000000000E+00 -0.27085554505E+01  0.27085554505E+01  0.00000000000E+00 0.  1.
          2    1    1    2  501    0 -0.15863876722E+01  0.20417554062E+01  0.37137056800E+01  0.45251527450E+01  0.25500000000E-02 0. -1.
         -2    1    1    2    0  501  0.15863876722E+01 -0.20417554062E+01 -0.15770519082E+01  0.30286119277E+01  0.25500000000E-02 0.  1.
<mgrwt>
<rscale>  0 0.25856136E+01</rscale>
<asrwt>0</asrwt>
<pdfrwt beam="1">0</pdfrwt>
<pdfrwt beam="2">0</pdfrwt>
<totfact> 0.11967337E+12</totfact>
</mgrwt>
</event>
<event>
 4    1  0.3064748E+006  0.2031431E+01  0.7546771E-02  0.2959827E+00
         22   -1    0    0    0    0  0.00000000000E+00  0.00000000000E+00  0.13121237732E+00  0.13121237732E+00  0.00000000000E+00 0.  1.
         22   -1    0    0    0    0 -0.00000000000E+00 -0.00000000000E+00 -0.64115685250E+02  0.64115685250E+02  0.00000000000E+00 0. -1.
          2    1    1    2  501    0 -0.16355154701E+01  0.12049039465E+01 -0.90634128225E+01  0.92882809425E+01  0.25500000000E-02 0.  1.
         -2    1    1    2    0  501  0.16355154701E+01 -0.12049039465E+01 -0.54921060050E+02  0.54958616685E+02  0.25500000000E-02 0. -1.
<mgrwt>
<rscale>  0 0.20314307E+01</rscale>
<asrwt>0</asrwt>
<pdfrwt beam="1">0</pdfrwt>
<pdfrwt beam="2">0</pdfrwt>
<totfact> 0.14779368E+12</totfact>
</mgrwt>
</event>
<event>
 4    1  0.3064748E+006  0.2174420E+01  0.7546771E-02  0.2872171E+00
         22   -1    0    0    0    0  0.00000000000E+00  0.00000000000E+00  0.93237802458E-01  0.93237802458E-01  0.00000000000E+00 0. -1.
         22   -1    0    0    0    0 -0.00000000000E+00 -0.00000000000E+00 -0.53402608125E+02  0.53402608125E+02  0.00000000000E+00 0.  1.
          2    1    1    2  501    0 -0.14959719602E+01 -0.15780253119E+01 -0.20648707642E+02  0.20762881057E+02  0.25500000000E-02 0.  1.
         -2    1    1    2    0  501  0.14959719602E+01  0.15780253119E+01 -0.32660662681E+02  0.32732964871E+02  0.25500000000E-02 0. -1.
<mgrwt>
<rscale>  0 0.21744200E+01</rscale>
<asrwt>0</asrwt>
<pdfrwt beam="1">0</pdfrwt>
<pdfrwt beam="2">0</pdfrwt>
<totfact> 0.27553106E+12</totfact>
</mgrwt>
</event>
<event>
 4    1  0.3064748E+006  0.2262142E+01  0.7546771E-02  0.2823690E+00
         22   -1    0    0    0    0  0.00000000000E+00  0.00000000000E+00  0.64227577076E+01  0.64227577076E+01  0.00000000000E+00 0.  1.
         22   -1    0    0    0    0 -0.00000000000E+00 -0.00000000000E+00 -0.40854220137E+01  0.40854220137E+01  0.00000000000E+00 0. -1.
          2    1    1    2  501    0 -0.19574846770E+01 -0.11338130400E+01  0.58826702846E+01  0.63026259964E+01  0.25500000000E-02 0.  1.
         -2    1    1    2    0  501  0.19574846770E+01  0.11338130400E+01 -0.35453345907E+01  0.42055537249E+01  0.25500000000E-02 0. -1.
<mgrwt>
<rscale>  0 0.22621416E+01</rscale>
<asrwt>0</asrwt>
<pdfrwt beam="1">0</pdfrwt>
<pdfrwt beam="2">0</pdfrwt>
<totfact> 0.52907342E+11</totfact>
</mgrwt>
</event>
<event>
 4    1  0.3064748E+006  0.2283980E+01  0.7546771E-02  0.2812175E+00
         22   -1    0    0    0    0  0.00000000000E+00  0.00000000000E+00  0.33134092820E-01  0.33134092820E-01  0.00000000000E+00 0. -1.
         22   -1    0    0    0    0 -0.00000000000E+00 -0.00000000000E+00 -0.15920754379E+03  0.15920754379E+03  0.00000000000E+00 0.  1.
          2    1    1    2  501    0 -0.13340332750E+01 -0.18538913376E+01 -0.87981346866E+02  0.88010987727E+02  0.25500000000E-02 0. -1.
         -2    1    1    2    0  501  0.13340332750E+01  0.18538913376E+01 -0.71193062831E+02  0.71229690156E+02  0.25500000000E-02 0.  1.
<mgrwt>
<rscale>  0 0.22839799E+01</rscale>
<asrwt>0</asrwt>
<pdfrwt beam="1">0</pdfrwt>
<pdfrwt beam="2">0</pdfrwt>
<totfact> 0.18631574E+12</totfact>
</mgrwt>
</event>
<event>
 4    1  0.3064748E+006  0.3663605E+01  0.7546771E-02  0.2346612E+00
         22   -1    0    0    0    0  0.00000000000E+00  0.00000000000E+00  0.28185165616E+02  0.28185165616E+02  0.00000000000E+00 0. -1.
         22   -1    0    0    0    0 -0.00000000000E+00 -0.00000000000E+00 -0.48686878189E+00  0.48686878189E+00  0.00000000000E+00 0.  1.
          2    1    1    2  501    0  0.35317953964E+01  0.97386544972E+00  0.11727767418E+02  0.12286680909E+02  0.25500000000E-02 0.  1.
         -2    1    1    2    0  501 -0.35317953964E+01 -0.97386544972E+00  0.15970529416E+02  0.16385353489E+02  0.25500000000E-02 0. -1.
<mgrwt>
<rscale>  0 0.36636047E+01</rscale>
<asrwt>0</asrwt>
<pdfrwt beam="1">0</pdfrwt>
<pdfrwt beam="2">0</pdfrwt>
<totfact> 0.99602609E+11</totfact>
</mgrwt>
</event>
<event>
 4    1  0.3064748E+006  0.2268044E+01  0.7546771E-02  0.2820557E+00
         22   -1    0    0    0    0  0.00000000000E+00  0.00000000000E+00  0.28971983227E+02  0.28971983227E+02  0.00000000000E+00 0. -1.
         22   -1    0    0    0    0 -0.00000000000E+00 -0.00000000000E+00 -0.36988527757E+00  0.36988527757E+00  0.00000000000E+00 0.  1.
          2    1    1    2  501    0 -0.47879385202E+00  0.22169284707E+01  0.24880226841E+02  0.24983388672E+02  0.25500000000E-02 0. -1.
         -2    1    1    2    0  501  0.47879385202E+00 -0.22169284707E+01  0.37218711086E+01  0.43584798323E+01  0.25500000000E-02 0.  1.
<mgrwt>
<rscale>  0 0.22680436E+01</rscale>
<asrwt>0</asrwt>
<pdfrwt beam="1">0</pdfrwt>
<pdfrwt beam="2">0</pdfrwt>
<totfact> 0.13106837E+12</totfact>
</mgrwt>
</event>
<event>
 4    1  0.3064748E+006  0.2165268E+01  0.7546771E-02  0.2877446E+00
         22   -1    0    0    0    0  0.00000000000E+00  0.00000000000E+00  0.59113649000E+01  0.59113649000E+01  0.00000000000E+00 0. -1.
         22   -1    0    0    0    0 -0.00000000000E+00 -0.00000000000E+00 -0.58191794825E+01  0.58191794825E+01  0.00000000000E+00 0.  1.
          2    1    1    2  501    0  0.16012043288E+01 -0.14575753201E+01  0.54970321414E+01  0.59081088330E+01  0.25500000000E-02 0. -1.
         -2    1    1    2    0  501 -0.16012043288E+01  0.14575753201E+01 -0.54048467239E+01  0.58224355495E+01  0.25500000000E-02 0.  1.
<mgrwt>
<rscale>  0 0.21652685E+01</rscale>
<asrwt>0</asrwt>
<pdfrwt beam="1">0</pdfrwt>
<pdfrwt beam="2">0</pdfrwt>
<totfact> 0.38429429E+11</totfact>
</mgrwt>
</event>
<event>
 4    1  0.3064748E+006  0.2187832E+01  0.7546771E-02  0.2864518E+00
         22   -1    0    0    0    0  0.00000000000E+00  0.00000000000E+00  0.46485647778E+01  0.46485647778E+01  0.00000000000E+00 0. -1.
         22   -1    0    0    0    0 -0.00000000000E+00 -0.00000000000E+00 -0.11336850232E+01  0.11336850232E+01  0.00000000000E+00 0.  1.
          2    1    1    2  501    0  0.15166520401E+01  0.15768217777E+01  0.26330588721E+01  0.34233909878E+01  0.25500000000E-02 0. -1.
         -2    1    1    2    0  501 -0.15166520401E+01 -0.15768217777E+01  0.88182088254E+00  0.23588588132E+01  0.25500000000E-02 0.  1.
<mgrwt>
<rscale>  0 0.21878315E+01</rscale>
<asrwt>0</asrwt>
<pdfrwt beam="1">0</pdfrwt>
<pdfrwt beam="2">0</pdfrwt>
<totfact> 0.34349856E+12</totfact>
</mgrwt>
</event>
<event>
 4    1  0.3064748E+006  0.2673198E+01  0.7546771E-02  0.2636770E+00
         22   -1    0    0    0    0  0.00000000000E+00  0.00000000000E+00  0.13581114976E+00  0.13581114976E+00  0.00000000000E+00 0.  1.
         22   -1    0    0    0    0 -0.00000000000E+00 -0.00000000000E+00 -0.54823931674E+02  0.54823931674E+02  0.00000000000E+00 0. -1.
          2    1    1    2  501    0 -0.15565555443E+00  0.26686613370E+01 -0.32857396435E+02  0.32965959549E+02  0.25500000000E-02 0.  1.
         -2    1    1    2    0  501  0.15565555443E+00 -0.26686613370E+01 -0.21830724089E+02  0.21993783275E+02  0.25500000000E-02 0. -1.
<mgrwt>
<rscale>  0 0.26731982E+01</rscale>
<asrwt>0</asrwt>
<pdfrwt beam="1">0</pdfrwt>
<pdfrwt beam="2">0</pdfrwt>
<totfact> 0.17539522E+12</totfact>
</mgrwt>
</event>
<event>
 4    1  0.3064748E+006  0.4114777E+01  0.7546771E-02  0.2255877E+00
         22   -1    0    0    0    0  0.00000000000E+00  0.00000000000E+00  0.16299785519E+02  0.16299785519E+02  0.00000000000E+00 0.  1.
         22   -1    0    0    0    0 -0.00000000000E+00 -0.00000000000E+00 -0.16649418405E+01  0.16649418405E+01  0.00000000000E+00 0. -1.
          2    1    1    2  501    0 -0.18852117478E+01 -0.36575072286E+01  0.12826070639E+02  0.13469947179E+02  0.25500000000E-02 0.  1.
         -2    1    1    2    0  501  0.18852117478E+01  0.36575072286E+01  0.18087730394E+01  0.44947801806E+01  0.25500000000E-02 0. -1.
<mgrwt>
<rscale>  0 0.41147769E+01</rscale>
<asrwt>0</asrwt>
<pdfrwt beam="1">0</pdfrwt>
<pdfrwt beam="2">0</pdfrwt>
<totfact> 0.48652223E+11</totfact>
</mgrwt>
</event>
<event>
 4    1  0.3064748E+006  0.3343916E+01  0.7546771E-02  0.2423531E+00
         22   -1    0    0    0    0  0.00000000000E+00  0.00000000000E+00  0.15671013000E+01  0.15671013000E+01  0.00000000000E+00 0.  1.
         22   -1    0    0    0    0 -0.00000000000E+00 -0.00000000000E+00 -0.77270160432E+01  0.77270160432E+01  0.00000000000E+00 0. -1.
          2    1    1    2  501    0  0.33299958671E+01 -0.30478365768E+00 -0.17940167256E+01  0.37947685130E+01  0.25500000000E-02 0.  1.
         -2    1    1    2    0  501 -0.33299958671E+01  0.30478365768E+00 -0.43658980175E+01  0.54993488301E+01  0.25500000000E-02 0. -1.
<mgrwt>
<rscale>  0 0.33439157E+01</rscale>
<asrwt>0</asrwt>
<pdfrwt beam="1">0</pdfrwt>
<pdfrwt beam="2">0</pdfrwt>
<totfact> 0.12936062E+12</totfact>
</mgrwt>
</event>
<event>
 4    1  0.3064748E+006  0.2025205E+01  0.7546771E-02  0.2963916E+00
         22   -1    0    0    0    0  0.00000000000E+00  0.00000000000E+00  0.75705047113E+00  0.75705047113E+00  0.00000000000E+00 0. -1.
         22   -1    0    0    0    0 -0.00000000000E+00 -0.00000000000E+00 -0.54372321599E+01  0.54372321599E+01  0.00000000000E+00 0.  1.
          2    1    1    2  501    0 -0.34839394143E+00 -0.19950117031E+01 -0.25258195936E+01  0.32374714139E+01  0.25500000000E-02 0.  1.
         -2    1    1    2    0  501  0.34839394143E+00  0.19950117031E+01 -0.21543620952E+01  0.29568112171E+01  0.25500000000E-02 0. -1.
<mgrwt>
<rscale>  0 0.20252053E+01</rscale>
<asrwt>0</asrwt>
<pdfrwt beam="1">0</pdfrwt>
<pdfrwt beam="2">0</pdfrwt>
<totfact> 0.45218097E+12</totfact>
</mgrwt>
</event>
<event>
 4    1  0.3064748E+006  0.6573045E+01  0.7546771E-02  0.1971812E+00
         22   -1    0    0    0    0  0.00000000000E+00  0.00000000000E+00  0.49649454075E+01  0.49649454075E+01  0.00000000000E+00 0. -1.
         22   -1    0    0    0    0 -0.00000000000E+00 -0.00000000000E+00 -0.10689876006E+02  0.10689876006E+02  0.00000000000E+00 0.  1.
          2    1    1    2  501    0 -0.57891255525E+01  0.31130265045E+01  0.51295073138E+00  0.65930291699E+01  0.25500000000E-02 0. -1.
         -2    1    1    2    0  501  0.57891255525E+01 -0.31130265045E+01 -0.62378813301E+01  0.90617922438E+01  0.25500000000E-02 0.  1.
<mgrwt>
<rscale>  0 0.65730446E+01</rscale>
<asrwt>0</asrwt>
<pdfrwt beam="1">0</pdfrwt>
<pdfrwt beam="2">0</pdfrwt>
<totfact> 0.22772193E+11</totfact>
</mgrwt>
</event>
<event>
 4    1  0.3064748E+006  0.2529167E+01  0.7546771E-02  0.2695809E+00
         22   -1    0    0    0    0  0.00000000000E+00  0.00000000000E+00  0.54518290662E+00  0.54518290662E+00  0.00000000000E+00 0. -1.
         22   -1    0    0    0    0 -0.00000000000E+00 -0.00000000000E+00 -0.12134142960E+02  0.12134142960E+02  0.00000000000E+00 0.  1.
          2    1    1    2  501    0  0.25253588246E+01  0.13871779782E+00 -0.46419392309E+01  0.52862355364E+01  0.25500000000E-02 0.  1.
         -2    1    1    2    0  501 -0.25253588246E+01 -0.13871779782E+00 -0.69470208225E+01  0.73930903302E+01  0.25500000000E-02 0. -1.
<mgrwt>
<rscale>  0 0.25291671E+01</rscale>
<asrwt>0</asrwt>
<pdfrwt beam="1">0</pdfrwt>
<pdfrwt beam="2">0</pdfrwt>
<totfact> 0.24989461E+12</totfact>
</mgrwt>
</event>
<event>
 4    1  0.3064748E+006  0.2044472E+01  0.7546771E-02  0.2951338E+00
         22   -1    0    0    0    0  0.00000000000E+00  0.00000000000E+00  0.16377059203E+00  0.16377059203E+00  0.00000000000E+00 0.  1.
         22   -1    0    0    0    0 -0.00000000000E+00 -0.00000000000E+00 -0.31445418511E+02  0.31445418511E+02  0.00000000000E+00 0. -1.
          2    1    1    2  501    0  0.18814821233E+01  0.79992873652E+00 -0.87817534780E+01  0.90165992267E+01  0.25500000000E-02 0. -1.
         -2    1    1    2    0  501 -0.18814821233E+01 -0.79992873652E+00 -0.22499894441E+02  0.22592589876E+02  0.25500000000E-02 0.  1.
<mgrwt>
<rscale>  0 0.20444724E+01</rscale>
<asrwt>0</asrwt>
<pdfrwt beam="1">0</pdfrwt>
<pdfrwt beam="2">0</pdfrwt>
<totfact> 0.29367502E+12</totfact>
</mgrwt>
</event>
<event>
 4    1  0.3064748E+006  0.2151903E+01  0.7546771E-02  0.2885227E+00
         22   -1    0    0    0    0  0.00000000000E+00  0.00000000000E+00  0.25048341696E+00  0.25048341696E+00  0.00000000000E+00 0. -1.
         22   -1    0    0    0    0 -0.00000000000E+00 -0.00000000000E+00 -0.33014060885E+02  0.33014060885E+02  0.00000000000E+00 0.  1.
          2    1    1    2  501    0 -0.10788916556E+01 -0.18619000450E+01 -0.53488533845E+01  0.57654937354E+01  0.25500000000E-02 0. -1.
         -2    1    1    2    0  501  0.10788916556E+01  0.18619000450E+01 -0.27414724083E+02  0.27499050566E+02  0.25500000000E-02 0.  1.
<mgrwt>
<rscale>  0 0.21519028E+01</rscale>
<asrwt>0</asrwt>
<pdfrwt beam="1">0</pdfrwt>
<pdfrwt beam="2">0</pdfrwt>
<totfact> 0.17175913E+12</totfact>
</mgrwt>
</event>
<event>
 4    1  0.3064748E+006  0.2340755E+01  0.7546771E-02  0.2783191E+00
         22   -1    0    0    0    0  0.00000000000E+00  0.00000000000E+00  0.20703125708E+01  0.20703125708E+01  0.00000000000E+00 0. -1.
         22   -1    0    0    0    0 -0.00000000000E+00 -0.00000000000E+00 -0.28812863155E+01  0.28812863155E+01  0.00000000000E+00 0.  1.
          2    1    1    2  501    0 -0.11730160359E+01 -0.20256259212E+01  0.30121417460E+00  0.23600558202E+01  0.25500000000E-02 0. -1.
         -2    1    1    2    0  501  0.11730160359E+01  0.20256259212E+01 -0.11121879193E+01  0.25915430661E+01  0.25500000000E-02 0.  1.
<mgrwt>
<rscale>  0 0.23407549E+01</rscale>
<asrwt>0</asrwt>
<pdfrwt beam="1">0</pdfrwt>
<pdfrwt beam="2">0</pdfrwt>
<totfact> 0.30112293E+12</totfact>
</mgrwt>
</event>
<event>
 4    1  0.3064748E+006  0.2176848E+01  0.7546771E-02  0.2870779E+00
         22   -1    0    0    0    0  0.00000000000E+00  0.00000000000E+00  0.64640376690E+01  0.64640376690E+01  0.00000000000E+00 0.  1.
         22   -1    0    0    0    0 -0.00000000000E+00 -0.00000000000E+00 -0.17802318952E+01  0.17802318952E+01  0.00000000000E+00 0. -1.
          2    1    1    2  501    0  0.99055430665E+00  0.19384179204E+01  0.55033678073E+01  0.59182535932E+01  0.25500000000E-02 0.  1.
         -2    1    1    2    0  501 -0.99055430665E+00 -0.19384179204E+01 -0.81956203347E+00  0.23260159711E+01  0.25500000000E-02 0. -1.
<mgrwt>
<rscale>  0 0.21768483E+01</rscale>
<asrwt>0</asrwt>
<pdfrwt beam="1">0</pdfrwt>
<pdfrwt beam="2">0</pdfrwt>
<totfact> 0.13824612E+12</totfact>
</mgrwt>
</event>
<event>
 4    1  0.3064748E+006  0.2397491E+01  0.7546771E-02  0.2755523E+00
         22   -1    0    0    0    0  0.00000000000E+00  0.00000000000E+00  0.29194621515E+00  0.29194621515E+00  0.00000000000E+00 0. -1.
         22   -1    0    0    0    0 -0.00000000000E+00 -0.00000000000E+00 -0.20093791688E+02  0.20093791688E+02  0.00000000000E+00 0.  1.
          2    1    1    2  501    0  0.22043760322E+01 -0.94270068860E+00 -0.84532083940E+01  0.87866203363E+01  0.25500000000E-02 0. -1.
         -2    1    1    2    0  501 -0.22043760322E+01  0.94270068860E+00 -0.11348637079E+02  0.11599117567E+02  0.25500000000E-02 0.  1.
<mgrwt>
<rscale>  0 0.23974914E+01</rscale>
<asrwt>0</asrwt>
<pdfrwt beam="1">0</pdfrwt>
<pdfrwt beam="2">0</pdfrwt>
<totfact> 0.27100076E+12</totfact>
</mgrwt>
</event>
<event>
 4    1  0.3064748E+006  0.2367767E+01  0.7546771E-02  0.2769863E+00
         22   -1    0    0    0    0  0.00000000000E+00  0.00000000000E+00  0.17524660577E+02  0.17524660577E+02  0.00000000000E+00 0. -1.
         22   -1    0    0    0    0 -0.00000000000E+00 -0.00000000000E+00 -0.33699968718E+00  0.33699968718E+00  0.00000000000E+00 0.  1.
          2    1    1    2  501    0  0.21274047668E+01 -0.10394532370E+01  0.10604957407E+02  0.10866068387E+02  0.25500000000E-02 0. -1.
         -2    1    1    2    0  501 -0.21274047668E+01  0.10394532370E+01  0.65827034827E+01  0.69955918776E+01  0.25500000000E-02 0.  1.
<mgrwt>
<rscale>  0 0.23677670E+01</rscale>
<asrwt>0</asrwt>
<pdfrwt beam="1">0</pdfrwt>
<pdfrwt beam="2">0</pdfrwt>
<totfact> 0.27346716E+12</totfact>
</mgrwt>
</event>
<event>
 4    1  0.3064748E+006  0.2217610E+01  0.7546771E-02  0.2847843E+00
         22   -1    0    0    0    0  0.00000000000E+00  0.00000000000E+00  0.55745143620E+01  0.55745143620E+01  0.00000000000E+00 0.  1.
         22   -1    0    0    0    0 -0.00000000000E+00 -0.00000000000E+00 -0.11120533500E+01  0.11120533500E+01  0.00000000000E+00 0. -1.
          2    1    1    2  501    0  0.55078730864E+00  0.21481206856E+01  0.37512277301E+01  0.43576949325E+01  0.25500000000E-02 0.  1.
         -2    1    1    2    0  501 -0.55078730864E+00 -0.21481206856E+01  0.71123328185E+00  0.23288727794E+01  0.25500000000E-02 0. -1.
<mgrwt>
<rscale>  0 0.22176103E+01</rscale>
<asrwt>0</asrwt>
<pdfrwt beam="1">0</pdfrwt>
<pdfrwt beam="2">0</pdfrwt>
<totfact> 0.28317079E+12</totfact>
</mgrwt>
</event>
<event>
 4    1  0.3064748E+006  0.2720002E+01  0.7546771E-02  0.2618826E+00
         22   -1    0    0    0    0  0.00000000000E+00  0.00000000000E+00  0.55569940912E+01  0.55569940912E+01  0.00000000000E+00 0.  1.
         22   -1    0    0    0    0 -0.00000000000E+00 -0.00000000000E+00 -0.23394060926E+01  0.23394060926E+01  0.00000000000E+00 0. -1.
          2    1    1    2  501    0 -0.24729245300E+01  0.11327176671E+01  0.42004928110E+01  0.50042533311E+01  0.25500000000E-02 0.  1.
         -2    1    1    2    0  501  0.24729245300E+01 -0.11327176671E+01 -0.98290481240E+00  0.28921468527E+01  0.25500000000E-02 0. -1.
<mgrwt>
<rscale>  0 0.27200021E+01</rscale>
<asrwt>0</asrwt>
<pdfrwt beam="1">0</pdfrwt>
<pdfrwt beam="2">0</pdfrwt>
<totfact> 0.12063473E+12</totfact>
</mgrwt>
</event>
<event>
 4    1  0.3064748E+006  0.2079116E+01  0.7546771E-02  0.2929295E+00
         22   -1    0    0    0    0  0.00000000000E+00  0.00000000000E+00  0.12595963651E+02  0.12595963651E+02  0.00000000000E+00 0. -1.
         22   -1    0    0    0    0 -0.00000000000E+00 -0.00000000000E+00 -0.34662383445E+00  0.34662383445E+00  0.00000000000E+00 0.  1.
          2    1    1    2  501    0 -0.11618942914E+01 -0.17241567315E+01  0.67694184135E+01  0.70815073917E+01  0.25500000000E-02 0. -1.
         -2    1    1    2    0  501  0.11618942914E+01  0.17241567315E+01  0.54799214028E+01  0.58610800935E+01  0.25500000000E-02 0.  1.
<mgrwt>
<rscale>  0 0.20791155E+01</rscale>
<asrwt>0</asrwt>
<pdfrwt beam="1">0</pdfrwt>
<pdfrwt beam="2">0</pdfrwt>
<totfact> 0.39772228E+12</totfact>
</mgrwt>
</event>
<event>
 4    1  0.3064748E+006  0.2848422E+01  0.7546771E-02  0.2572364E+00
         22   -1    0    0    0    0  0.00000000000E+00  0.00000000000E+00  0.90663859973E+02  0.90663859973E+02  0.00000000000E+00 0.  1.
         22   -1    0    0    0    0 -0.00000000000E+00 -0.00000000000E+00 -0.19199018730E+00  0.19199018730E+00  0.00000000000E+00 0. -1.
          2    1    1    2  501    0  0.80435468696E+00  0.27324927391E+01  0.78428873122E+02  0.78480581349E+02  0.25500000000E-02 0.  1.
         -2    1    1    2    0  501 -0.80435468696E+00 -0.27324927391E+01  0.12042996663E+02  0.12375268812E+02  0.25500000000E-02 0. -1.
<mgrwt>
<rscale>  0 0.28484223E+01</rscale>
<asrwt>0</asrwt>
<pdfrwt beam="1">0</pdfrwt>
<pdfrwt beam="2">0</pdfrwt>
<totfact> 0.60243962E+11</totfact>
</mgrwt>
</event>
<event>
 4    1  0.3064748E+006  0.4916758E+01  0.7546771E-02  0.2133073E+00
         22   -1    0    0    0    0  0.00000000000E+00  0.00000000000E+00  0.28959559752E+02  0.28959559752E+02  0.00000000000E+00 0.  1.
         22   -1    0    0    0    0 -0.00000000000E+00 -0.00000000000E+00 -0.10363114588E+01  0.10363114588E+01  0.00000000000E+00 0. -1.
          2    1    1    2  501    0 -0.69204651270E+00  0.48678098961E+01  0.20575726338E+02  0.21155023573E+02  0.25500000000E-02 0.  1.
         -2    1    1    2    0  501  0.69204651270E+00 -0.48678098961E+01  0.73475219556E+01  0.88408476376E+01  0.25500000000E-02 0. -1.
<mgrwt>
<rscale>  0 0.49167579E+01</rscale>
<asrwt>0</asrwt>
<pdfrwt beam="1">0</pdfrwt>
<pdfrwt beam="2">0</pdfrwt>
<totfact> 0.40811191E+11</totfact>
</mgrwt>
</event>
<event>
 4    1  0.3064748E+006  0.2086119E+01  0.7546771E-02  0.2924925E+00
         22   -1    0    0    0    0  0.00000000000E+00  0.00000000000E+00  0.48632403223E+01  0.48632403223E+01  0.00000000000E+00 0.  1.
         22   -1    0    0    0    0 -0.00000000000E+00 -0.00000000000E+00 -0.13561086077E+01  0.13561086077E+01  0.00000000000E+00 0. -1.
          2    1    1    2  501    0  0.18174059005E+01  0.10241693211E+01  0.35671500247E+01  0.41323664898E+01  0.25500000000E-02 0.  1.
         -2    1    1    2    0  501 -0.18174059005E+01 -0.10241693211E+01 -0.60018310115E-01  0.20869824401E+01  0.25500000000E-02 0. -1.
<mgrwt>
<rscale>  0 0.20861192E+01</rscale>
<asrwt>0</asrwt>
<pdfrwt beam="1">0</pdfrwt>
<pdfrwt beam="2">0</pdfrwt>
<totfact> 0.26517766E+12</totfact>
</mgrwt>
</event>
<event>
 4    1  0.3064748E+006  0.6128853E+01  0.7546771E-02  0.2008321E+00
         22   -1    0    0    0    0  0.00000000000E+00  0.00000000000E+00  0.48788160430E+01  0.48788160430E+01  0.00000000000E+00 0.  1.
         22   -1    0    0    0    0 -0.00000000000E+00 -0.00000000000E+00 -0.88721124180E+01  0.88721124180E+01  0.00000000000E+00 0. -1.
          2    1    1    2  501    0  0.58223158530E+01 -0.19140206623E+01  0.50327404760E+00  0.61494819503E+01  0.25500000000E-02 0.  1.
         -2    1    1    2    0  501 -0.58223158530E+01  0.19140206623E+01 -0.44965704226E+01  0.76014465107E+01  0.25500000000E-02 0. -1.
<mgrwt>
<rscale>  0 0.61288534E+01</rscale>
<asrwt>0</asrwt>
<pdfrwt beam="1">0</pdfrwt>
<pdfrwt beam="2">0</pdfrwt>
<totfact> 0.29128843E+11</totfact>
</mgrwt>
</event>
<event>
 4    1  0.3064748E+006  0.2880019E+01  0.7546771E-02  0.2561511E+00
         22   -1    0    0    0    0  0.00000000000E+00  0.00000000000E+00  0.54230380268E+01  0.54230380268E+01  0.00000000000E+00 0. -1.
         22   -1    0    0    0    0 -0.00000000000E+00 -0.00000000000E+00 -0.15512427404E+01  0.15512427404E+01  0.00000000000E+00 0.  1.
          2    1    1    2  501    0 -0.28548346844E+01  0.38003194494E+00  0.23487857438E+01  0.37163565932E+01  0.25500000000E-02 0. -1.
         -2    1    1    2    0  501  0.28548346844E+01 -0.38003194494E+00  0.15230095426E+01  0.32579241741E+01  0.25500000000E-02 0.  1.
<mgrwt>
<rscale>  0 0.28800194E+01</rscale>
<asrwt>0</asrwt>
<pdfrwt beam="1">0</pdfrwt>
<pdfrwt beam="2">0</pdfrwt>
<totfact> 0.19969687E+12</totfact>
</mgrwt>
</event>
<event>
 4    1  0.3064748E+006  0.2717935E+01  0.7546771E-02  0.2619607E+00
         22   -1    0    0    0    0  0.00000000000E+00  0.00000000000E+00  0.11026651194E+02  0.11026651194E+02  0.00000000000E+00 0.  1.
         22   -1    0    0    0    0 -0.00000000000E+00 -0.00000000000E+00 -0.29452092330E+01  0.29452092330E+01  0.00000000000E+00 0. -1.
          2    1    1    2  501    0  0.17470197349E+01 -0.20820873101E+01  0.10180924407E+02  0.10537475684E+02  0.25500000000E-02 0.  1.
         -2    1    1    2    0  501 -0.17470197349E+01  0.20820873101E+01 -0.20994824454E+01  0.34343847429E+01  0.25500000000E-02 0. -1.
<mgrwt>
<rscale>  0 0.27179353E+01</rscale>
<asrwt>0</asrwt>
<pdfrwt beam="1">0</pdfrwt>
<pdfrwt beam="2">0</pdfrwt>
<totfact> 0.40516257E+11</totfact>
</mgrwt>
</event>
<event>
 4    1  0.3064748E+006  0.2096635E+01  0.7546771E-02  0.2918417E+00
         22   -1    0    0    0    0  0.00000000000E+00  0.00000000000E+00  0.25005529112E+02  0.25005529112E+02  0.00000000000E+00 0. -1.
         22   -1    0    0    0    0 -0.00000000000E+00 -0.00000000000E+00 -0.83366990759E+00  0.83366990759E+00  0.00000000000E+00 0.  1.
          2    1    1    2  501    0 -0.61591298930E+00 -0.20041265614E+01  0.23562793530E+02  0.23655889700E+02  0.25500000000E-02 0. -1.
         -2    1    1    2    0  501  0.61591298930E+00  0.20041265614E+01  0.60906567442E+00  0.21833093191E+01  0.25500000000E-02 0.  1.
<mgrwt>
<rscale>  0 0.20966351E+01</rscale>
<asrwt>0</asrwt>
<pdfrwt beam="1">0</pdfrwt>
<pdfrwt beam="2">0</pdfrwt>
<totfact> 0.62987219E+11</totfact>
</mgrwt>
</event>
<event>
 4    1  0.3064748E+006  0.2652905E+01  0.7546771E-02  0.2644731E+00
         22   -1    0    0    0    0  0.00000000000E+00  0.00000000000E+00  0.80154899963E+01  0.80154899963E+01  0.00000000000E+00 0.  1.
         22   -1    0    0    0    0 -0.00000000000E+00 -0.00000000000E+00 -0.90731366959E+00  0.90731366959E+00  0.00000000000E+00 0. -1.
          2    1    1    2  501    0  0.20628866103E+01 -0.16680513853E+01  0.43554849877E+01  0.50998188764E+01  0.25500000000E-02 0. -1.
         -2    1    1    2    0  501 -0.20628866103E+01  0.16680513853E+01  0.27526913390E+01  0.38229847896E+01  0.25500000000E-02 0.  1.
<mgrwt>
<rscale>  0 0.26529047E+01</rscale>
<asrwt>0</asrwt>
<pdfrwt beam="1">0</pdfrwt>
<pdfrwt beam="2">0</pdfrwt>
<totfact> 0.23152325E+12</totfact>
</mgrwt>
</event>
<event>
 4    1  0.3064748E+006  0.6098777E+01  0.7546771E-02  0.2010941E+00
         22   -1    0    0    0    0  0.00000000000E+00  0.00000000000E+00  0.14142233871E+02  0.14142233871E+02  0.00000000000E+00 0. -1.
         22   -1    0    0    0    0 -0.00000000000E+00 -0.00000000000E+00 -0.47984296390E+01  0.47984296390E+01  0.00000000000E+00 0.  1.
          2    1    1    2  501    0 -0.15495880535E+01  0.58986310762E+01  0.11038115506E+02  0.12610910837E+02  0.25500000000E-02 0. -1.
         -2    1    1    2    0  501  0.15495880535E+01 -0.58986310762E+01 -0.16943112739E+01  0.63297526732E+01  0.25500000000E-02 0.  1.
<mgrwt>
<rscale>  0 0.60987768E+01</rscale>
<asrwt>0</asrwt>
<pdfrwt beam="1">0</pdfrwt>
<pdfrwt beam="2">0</pdfrwt>
<totfact> 0.16849205E+11</totfact>
</mgrwt>
</event>
<event>
 4    1  0.3064748E+006  0.3904669E+01  0.7546771E-02  0.2295896E+00
         22   -1    0    0    0    0  0.00000000000E+00  0.00000000000E+00  0.24696621497E+02  0.24696621497E+02  0.00000000000E+00 0.  1.
         22   -1    0    0    0    0 -0.00000000000E+00 -0.00000000000E+00 -0.15122459701E+01  0.15122459701E+01  0.00000000000E+00 0. -1.
          2    1    1    2  501    0 -0.22944524132E+01 -0.31594183312E+01  0.21672952549E+02  0.22021882634E+02  0.25500000000E-02 0.  1.
         -2    1    1    2    0  501  0.22944524132E+01  0.31594183312E+01  0.15114229778E+01  0.41869848326E+01  0.25500000000E-02 0. -1.
<mgrwt>
<rscale>  0 0.39046693E+01</rscale>
<asrwt>0</asrwt>
<pdfrwt beam="1">0</pdfrwt>
<pdfrwt beam="2">0</pdfrwt>
<totfact> 0.32368893E+11</totfact>
</mgrwt>
</event>
<event>
 4    1  0.3064748E+006  0.2158468E+01  0.7546771E-02  0.2881393E+00
         22   -1    0    0    0    0  0.00000000000E+00  0.00000000000E+00  0.42196795345E+00  0.42196795345E+00  0.00000000000E+00 0.  1.
         22   -1    0    0    0    0 -0.00000000000E+00 -0.00000000000E+00 -0.11041853448E+02  0.11041853448E+02  0.00000000000E+00 0. -1.
          2    1    1    2  501    0 -0.10780892146E+01  0.18699470619E+01 -0.52621866291E+01  0.56876702604E+01  0.25500000000E-02 0. -1.
         -2    1    1    2    0  501  0.10780892146E+01 -0.18699470619E+01 -0.53576988658E+01  0.57761511414E+01  0.25500000000E-02 0.  1.
<mgrwt>
<rscale>  0 0.21584682E+01</rscale>
<asrwt>0</asrwt>
<pdfrwt beam="1">0</pdfrwt>
<pdfrwt beam="2">0</pdfrwt>
<totfact> 0.37426891E+12</totfact>
</mgrwt>
</event>
<event>
 4    1  0.3064748E+006  0.2518050E+01  0.7546771E-02  0.2700626E+00
         22   -1    0    0    0    0  0.00000000000E+00  0.00000000000E+00  0.26562439914E+02  0.26562439914E+02  0.00000000000E+00 0. -1.
         22   -1    0    0    0    0 -0.00000000000E+00 -0.00000000000E+00 -0.49042078046E+00  0.49042078046E+00  0.00000000000E+00 0.  1.
          2    1    1    2  501    0  0.12637598989E+01 -0.21779530699E+01  0.22726692442E+02  0.22865763152E+02  0.25500000000E-02 0. -1.
         -2    1    1    2    0  501 -0.12637598989E+01  0.21779530699E+01  0.33453266918E+01  0.41870975430E+01  0.25500000000E-02 0.  1.
<mgrwt>
<rscale>  0 0.25180499E+01</rscale>
<asrwt>0</asrwt>
<pdfrwt beam="1">0</pdfrwt>
<pdfrwt beam="2">0</pdfrwt>
<totfact> 0.10649757E+12</totfact>
</mgrwt>
</event>
<event>
 4    1  0.3064748E+006  0.2059599E+01  0.7546771E-02  0.2941625E+00
         22   -1    0    0    0    0  0.00000000000E+00  0.00000000000E+00  0.12742018764E+02  0.12742018764E+02  0.00000000000E+00 0.  1.
         22   -1    0    0    0    0 -0.00000000000E+00 -0.00000000000E+00 -0.42091998268E+00  0.42091998268E+00  0.00000000000E+00 0. -1.
          2    1    1    2  501    0 -0.20588726497E+01 -0.54616181500E-01  0.91700120135E+01  0.93984608498E+01  0.25500000000E-02 0.  1.
         -2    1    1    2    0  501  0.20588726497E+01  0.54616181500E-01  0.31510867677E+01  0.37644778968E+01  0.25500000000E-02 0. -1.
<mgrwt>
<rscale>  0 0.20595985E+01</rscale>
<asrwt>0</asrwt>
<pdfrwt beam="1">0</pdfrwt>
<pdfrwt beam="2">0</pdfrwt>
<totfact> 0.31519782E+12</totfact>
</mgrwt>
</event>
<event>
 4    1  0.3064748E+006  0.4004279E+01  0.7546771E-02  0.2276477E+00
         22   -1    0    0    0    0  0.00000000000E+00  0.00000000000E+00  0.51026791176E+02  0.51026791176E+02  0.00000000000E+00 0.  1.
         22   -1    0    0    0    0 -0.00000000000E+00 -0.00000000000E+00 -0.16305714986E+01  0.16305714986E+01  0.00000000000E+00 0. -1.
          2    1    1    2  501    0 -0.30195804331E+01 -0.26299009669E+01  0.48354209340E+02  0.48519726014E+02  0.25500000000E-02 0.  1.
         -2    1    1    2    0  501  0.30195804331E+01  0.26299009669E+01  0.10420103373E+01  0.41376366603E+01  0.25500000000E-02 0. -1.
<mgrwt>
<rscale>  0 0.40042792E+01</rscale>
<asrwt>0</asrwt>
<pdfrwt beam="1">0</pdfrwt>
<pdfrwt beam="2">0</pdfrwt>
<totfact> 0.11649543E+11</totfact>
</mgrwt>
</event>
<event>
 4    1  0.3064748E+006  0.2014717E+01  0.7546771E-02  0.2970862E+00
         22   -1    0    0    0    0  0.00000000000E+00  0.00000000000E+00  0.21114819675E+01  0.21114819675E+01  0.00000000000E+00 0. -1.
         22   -1    0    0    0    0 -0.00000000000E+00 -0.00000000000E+00 -0.28769912360E+01  0.28769912360E+01  0.00000000000E+00 0.  1.
          2    1    1    2  501    0 -0.78467680096E+00  0.18556295234E+01  0.10539916985E+01  0.22737597967E+01  0.25500000000E-02 0. -1.
         -2    1    1    2    0  501  0.78467680096E+00 -0.18556295234E+01 -0.18195009669E+01  0.27147134068E+01  0.25500000000E-02 0.  1.
<mgrwt>
<rscale>  0 0.20147171E+01</rscale>
<asrwt>0</asrwt>
<pdfrwt beam="1">0</pdfrwt>
<pdfrwt beam="2">0</pdfrwt>
<totfact> 0.29482255E+12</totfact>
</mgrwt>
</event>
<event>
 4    1  0.3064748E+006  0.3056717E+01  0.7546771E-02  0.2504555E+00
         22   -1    0    0    0    0  0.00000000000E+00  0.00000000000E+00  0.37614390377E+01  0.37614390377E+01  0.00000000000E+00 0.  1.
         22   -1    0    0    0    0 -0.00000000000E+00 -0.00000000000E+00 -0.33447237900E+01  0.33447237900E+01  0.00000000000E+00 0. -1.
          2    1    1    2  501    0 -0.15635224323E+01 -0.26265771764E+01  0.20107531129E+01  0.36587763861E+01  0.25500000000E-02 0.  1.
         -2    1    1    2    0  501  0.15635224323E+01  0.26265771764E+01 -0.15940378652E+01  0.34473864417E+01  0.25500000000E-02 0. -1.
<mgrwt>
<rscale>  0 0.30567166E+01</rscale>
<asrwt>0</asrwt>
<pdfrwt beam="1">0</pdfrwt>
<pdfrwt beam="2">0</pdfrwt>
<totfact> 0.12606205E+12</totfact>
</mgrwt>
</event>
<event>
 4    1  0.3064748E+006  0.2375665E+01  0.7546771E-02  0.2766020E+00
         22   -1    0    0    0    0  0.00000000000E+00  0.00000000000E+00  0.11614731806E+02  0.11614731806E+02  0.00000000000E+00 0. -1.
         22   -1    0    0    0    0 -0.00000000000E+00 -0.00000000000E+00 -0.49691430156E+00  0.49691430156E+00  0.00000000000E+00 0.  1.
          2    1    1    2  501    0  0.87538965891E-01 -0.23740498374E+01  0.46579636499E+01  0.52288055584E+01  0.25500000000E-02 0.  1.
         -2    1    1    2    0  501 -0.87538965891E-01  0.23740498374E+01  0.64598538545E+01  0.68828405491E+01  0.25500000000E-02 0. -1.
<mgrwt>
<rscale>  0 0.23756646E+01</rscale>
<asrwt>0</asrwt>
<pdfrwt beam="1">0</pdfrwt>
<pdfrwt beam="2">0</pdfrwt>
<totfact> 0.29268419E+12</totfact>
</mgrwt>
</event>
<event>
 4    1  0.3064748E+006  0.2178949E+01  0.7546771E-02  0.2869577E+00
         22   -1    0    0    0    0  0.00000000000E+00  0.00000000000E+00  0.25771918483E+02  0.25771918483E+02  0.00000000000E+00 0. -1.
         22   -1    0    0    0    0 -0.00000000000E+00 -0.00000000000E+00 -0.20952139626E+00  0.20952139626E+00  0.00000000000E+00 0.  1.
          2    1    1    2  501    0  0.15388267284E+01  0.15426681842E+01  0.82672929382E+01  0.85496170590E+01  0.25500000000E-02 0.  1.
         -2    1    1    2    0  501 -0.15388267284E+01 -0.15426681842E+01  0.17295104148E+02  0.17431822820E+02  0.25500000000E-02 0. -1.
<mgrwt>
<rscale>  0 0.21789491E+01</rscale>
<asrwt>0</asrwt>
<pdfrwt beam="1">0</pdfrwt>
<pdfrwt beam="2">0</pdfrwt>
<totfact> 0.28736313E+12</totfact>
</mgrwt>
</event>
<event>
 4    1  0.3064748E+006  0.2188929E+01  0.7546771E-02  0.2863896E+00
         22   -1    0    0    0    0  0.00000000000E+00  0.00000000000E+00  0.13378137840E+00  0.13378137840E+00  0.00000000000E+00 0. -1.
         22   -1    0    0    0    0 -0.00000000000E+00 -0.00000000000E+00 -0.46797462056E+02  0.46797462056E+02  0.00000000000E+00 0.  1.
          2    1    1    2  501    0  0.84281062697E+00 -0.20201668855E+01 -0.11964306056E+02  0.12162895621E+02  0.25500000000E-02 0. -1.
         -2    1    1    2    0  501 -0.84281062697E+00  0.20201668855E+01 -0.34699374622E+02  0.34768347813E+02  0.25500000000E-02 0.  1.
<mgrwt>
<rscale>  0 0.21889291E+01</rscale>
<asrwt>0</asrwt>
<pdfrwt beam="1">0</pdfrwt>
<pdfrwt beam="2">0</pdfrwt>
<totfact> 0.21979516E+12</totfact>
</mgrwt>
</event>
<event>
 4    1  0.3064748E+006  0.5014974E+01  0.7546771E-02  0.2121221E+00
         22   -1    0    0    0    0  0.00000000000E+00  0.00000000000E+00  0.33348623059E+01  0.33348623059E+01  0.00000000000E+00 0.  1.
         22   -1    0    0    0    0 -0.00000000000E+00 -0.00000000000E+00 -0.77267847060E+01  0.77267847060E+01  0.00000000000E+00 0. -1.
          2    1    1    2  501    0 -0.39047574533E+01  0.31468757059E+01 -0.13395643331E+01  0.51907992239E+01  0.25500000000E-02 0.  1.
         -2    1    1    2    0  501  0.39047574533E+01 -0.31468757059E+01 -0.30523580670E+01  0.58708477880E+01  0.25500000000E-02 0. -1.
<mgrwt>
<rscale>  0 0.50149740E+01</rscale>
<asrwt>0</asrwt>
<pdfrwt beam="1">0</pdfrwt>
<pdfrwt beam="2">0</pdfrwt>
<totfact> 0.53829726E+11</totfact>
</mgrwt>
</event>
<event>
 4    1  0.3064748E+006  0.3204403E+01  0.7546771E-02  0.2461283E+00
         22   -1    0    0    0    0  0.00000000000E+00  0.00000000000E+00  0.40463084497E+01  0.40463084497E+01  0.00000000000E+00 0.  1.
         22   -1    0    0    0    0 -0.00000000000E+00 -0.00000000000E+00 -0.25799506299E+01  0.25799506299E+01  0.00000000000E+00 0. -1.
          2    1    1    2  501    0  0.24587673073E+01  0.20549105744E+01  0.11573069606E+01  0.34069869450E+01  0.25500000000E-02 0.  1.
         -2    1    1    2    0  501 -0.24587673073E+01 -0.20549105744E+01  0.30905085922E+00  0.32192721345E+01  0.25500000000E-02 0. -1.
<mgrwt>
<rscale>  0 0.32044033E+01</rscale>
<asrwt>0</asrwt>
<pdfrwt beam="1">0</pdfrwt>
<pdfrwt beam="2">0</pdfrwt>
<totfact> 0.15665686E+12</totfact>
</mgrwt>
</event>
<event>
 4    1  0.3064748E+006  0.2771404E+01  0.7546771E-02  0.2599759E+00
         22   -1    0    0    0    0  0.00000000000E+00  0.00000000000E+00  0.30187807101E+02  0.30187807101E+02  0.00000000000E+00 0. -1.
         22   -1    0    0    0    0 -0.00000000000E+00 -0.00000000000E+00 -0.26159307483E+00  0.26159307483E+00  0.00000000000E+00 0.  1.
          2    1    1    2  501    0 -0.27571522768E+01  0.28068247458E+00  0.17482473355E+02  0.17700778300E+02  0.25500000000E-02 0. -1.
         -2    1    1    2    0  501  0.27571522768E+01 -0.28068247458E+00  0.12443740671E+02  0.12748621876E+02  0.25500000000E-02 0.  1.
<mgrwt>
<rscale>  0 0.27714036E+01</rscale>
<asrwt>0</asrwt>
<pdfrwt beam="1">0</pdfrwt>
<pdfrwt beam="2">0</pdfrwt>
<totfact> 0.18346306E+12</totfact>
</mgrwt>
</event>
<event>
 4    1  0.3064748E+006  0.4656768E+01  0.7546771E-02  0.2166959E+00
         22   -1    0    0    0    0  0.00000000000E+00  0.00000000000E+00  0.13409273512E+01  0.13409273512E+01  0.00000000000E+00 0. -1.
         22   -1    0    0    0    0 -0.00000000000E+00 -0.00000000000E+00 -0.55638328833E+02  0.55638328833E+02  0.00000000000E+00 0.  1.
          2    1    1    2  501    0 -0.43559176798E+01 -0.16466513238E+01 -0.31541252734E+01  0.56244103832E+01  0.25500000000E-02 0. -1.
         -2    1    1    2    0  501  0.43559176798E+01  0.16466513238E+01 -0.51143276208E+02  0.51354845801E+02  0.25500000000E-02 0.  1.
<mgrwt>
<rscale>  0 0.46567678E+01</rscale>
<asrwt>0</asrwt>
<pdfrwt beam="1">0</pdfrwt>
<pdfrwt beam="2">0</pdfrwt>
<totfact> 0.13007843E+11</totfact>
</mgrwt>
</event>
<event>
 4    1  0.3064748E+006  0.2150757E+01  0.7546771E-02  0.2885898E+00
         22   -1    0    0    0    0  0.00000000000E+00  0.00000000000E+00  0.55143112376E+01  0.55143112376E+01  0.00000000000E+00 0.  1.
         22   -1    0    0    0    0 -0.00000000000E+00 -0.00000000000E+00 -0.46736382063E+01  0.46736382063E+01  0.00000000000E+00 0. -1.
          2    1    1    2  501    0  0.21054910529E+01  0.43892719318E+00  0.50345655737E+01  0.54747243468E+01  0.25500000000E-02 0.  1.
         -2    1    1    2    0  501 -0.21054910529E+01 -0.43892719318E+00 -0.41938925424E+01  0.47132250970E+01  0.25500000000E-02 0. -1.
<mgrwt>
<rscale>  0 0.21507571E+01</rscale>
<asrwt>0</asrwt>
<pdfrwt beam="1">0</pdfrwt>
<pdfrwt beam="2">0</pdfrwt>
<totfact> 0.54127601E+11</totfact>
</mgrwt>
</event>
<event>
 4    1  0.3064748E+006  0.3863855E+01  0.7546771E-02  0.2304099E+00
         22   -1    0    0    0    0  0.00000000000E+00  0.00000000000E+00  0.53055912289E+01  0.53055912289E+01  0.00000000000E+00 0.  1.
         22   -1    0    0    0    0 -0.00000000000E+00 -0.00000000000E+00 -0.28301759741E+01  0.28301759741E+01  0.00000000000E+00 0. -1.
          2    1    1    2  501    0  0.20570566228E+01  0.32707626878E+01  0.92917504470E+00  0.39740084644E+01  0.25500000000E-02 0. -1.
         -2    1    1    2    0  501 -0.20570566228E+01 -0.32707626878E+01  0.15462402100E+01  0.41617587386E+01  0.25500000000E-02 0.  1.
<mgrwt>
<rscale>  0 0.38638552E+01</rscale>
<asrwt>0</asrwt>
<pdfrwt beam="1">0</pdfrwt>
<pdfrwt beam="2">0</pdfrwt>
<totfact> 0.10211095E+12</totfact>
</mgrwt>
</event>
<event>
 4    1  0.3064748E+006  0.2888331E+01  0.7546771E-02  0.2558691E+00
         22   -1    0    0    0    0  0.00000000000E+00  0.00000000000E+00  0.93535807740E+01  0.93535807740E+01  0.00000000000E+00 0.  1.
         22   -1    0    0    0    0 -0.00000000000E+00 -0.00000000000E+00 -0.92986850840E+00  0.92986850840E+00  0.00000000000E+00 0. -1.
          2    1    1    2  501    0 -0.15440374379E+01 -0.24409832789E+01  0.31728680787E+01  0.42906350725E+01  0.25500000000E-02 0. -1.
         -2    1    1    2    0  501  0.15440374379E+01  0.24409832789E+01  0.52508441869E+01  0.59928142099E+01  0.25500000000E-02 0.  1.
<mgrwt>
<rscale>  0 0.28883313E+01</rscale>
<asrwt>0</asrwt>
<pdfrwt beam="1">0</pdfrwt>
<pdfrwt beam="2">0</pdfrwt>
<totfact> 0.18692447E+12</totfact>
</mgrwt>
</event>
<event>
 4    1  0.3064748E+006  0.2116863E+01  0.7546771E-02  0.2906075E+00
         22   -1    0    0    0    0  0.00000000000E+00  0.00000000000E+00  0.51045738391E+01  0.51045738391E+01  0.00000000000E+00 0.  1.
         22   -1    0    0    0    0 -0.00000000000E+00 -0.00000000000E+00 -0.12014305619E+01  0.12014305619E+01  0.00000000000E+00 0. -1.
          2    1    1    2  501    0 -0.71383946522E+00  0.19928711476E+01  0.35878547618E+01  0.41657904997E+01  0.25500000000E-02 0. -1.
         -2    1    1    2    0  501  0.71383946522E+00 -0.19928711476E+01  0.31528851543E+00  0.21402139013E+01  0.25500000000E-02 0.  1.
<mgrwt>
<rscale>  0 0.21168629E+01</rscale>
<asrwt>0</asrwt>
<pdfrwt beam="1">0</pdfrwt>
<pdfrwt beam="2">0</pdfrwt>
<totfact> 0.28771974E+12</totfact>
</mgrwt>
</event>
<event>
 4    1  0.3064748E+006  0.2541245E+01  0.7546771E-02  0.2690621E+00
         22   -1    0    0    0    0  0.00000000000E+00  0.00000000000E+00  0.29162378837E+01  0.29162378837E+01  0.00000000000E+00 0. -1.
         22   -1    0    0    0    0 -0.00000000000E+00 -0.00000000000E+00 -0.22447805254E+01  0.22447805254E+01  0.00000000000E+00 0.  1.
          2    1    1    2  501    0  0.20188538445E+01  0.15434210332E+01  0.35878660390E-01  0.25414982022E+01  0.25500000000E-02 0.  1.
         -2    1    1    2    0  501 -0.20188538445E+01 -0.15434210332E+01  0.63557869788E+00  0.26195202070E+01  0.25500000000E-02 0. -1.
<mgrwt>
<rscale>  0 0.25412449E+01</rscale>
<asrwt>0</asrwt>
<pdfrwt beam="1">0</pdfrwt>
<pdfrwt beam="2">0</pdfrwt>
<totfact> 0.27033543E+12</totfact>
</mgrwt>
</event>
<event>
 4    1  0.3064748E+006  0.2219396E+01  0.7546771E-02  0.2846857E+00
         22   -1    0    0    0    0  0.00000000000E+00  0.00000000000E+00  0.83562637968E+01  0.83562637968E+01  0.00000000000E+00 0.  1.
         22   -1    0    0    0    0 -0.00000000000E+00 -0.00000000000E+00 -0.10816426764E+01  0.10816426764E+01  0.00000000000E+00 0. -1.
          2    1    1    2  501    0  0.66126021900E+00 -0.21185954661E+01  0.68205189932E+01  0.71725307713E+01  0.25500000000E-02 0.  1.
         -2    1    1    2    0  501 -0.66126021900E+00  0.21185954661E+01  0.45410212720E+00  0.22653757019E+01  0.25500000000E-02 0. -1.
<mgrwt>
<rscale>  0 0.22193959E+01</rscale>
<asrwt>0</asrwt>
<pdfrwt beam="1">0</pdfrwt>
<pdfrwt beam="2">0</pdfrwt>
<totfact> 0.18017141E+12</totfact>
</mgrwt>
</event>
<event>
 4    1  0.3064748E+006  0.4290132E+01  0.7546771E-02  0.2225043E+00
         22   -1    0    0    0    0  0.00000000000E+00  0.00000000000E+00  0.15182876703E+00  0.15182876703E+00  0.00000000000E+00 0.  1.
         22   -1    0    0    0    0 -0.00000000000E+00 -0.00000000000E+00 -0.16904259155E+03  0.16904259155E+03  0.00000000000E+00 0. -1.
          2    1    1    2  501    0 -0.78192201762E+00 -0.42182731241E+01 -0.39451032858E+02  0.39683614128E+02  0.25500000000E-02 0.  1.
         -2    1    1    2    0  501  0.78192201762E+00  0.42182731241E+01 -0.12943972992E+03  0.12951080619E+03  0.25500000000E-02 0. -1.
<mgrwt>
<rscale>  0 0.42901325E+01</rscale>
<asrwt>0</asrwt>
<pdfrwt beam="1">0</pdfrwt>
<pdfrwt beam="2">0</pdfrwt>
<totfact> 0.31742184E+11</totfact>
</mgrwt>
</event>
<event>
 4    1  0.3064748E+006  0.3812450E+01  0.7546771E-02  0.2314646E+00
         22   -1    0    0    0    0  0.00000000000E+00  0.00000000000E+00  0.25079078563E+01  0.25079078563E+01  0.00000000000E+00 0. -1.
         22   -1    0    0    0    0 -0.00000000000E+00 -0.00000000000E+00 -0.62203368952E+01  0.62203368952E+01  0.00000000000E+00 0.  1.
          2    1    1    2  501    0  0.16129532702E+01  0.34544388069E+01 -0.71580221185E+00  0.38790649687E+01  0.25500000000E-02 0. -1.
         -2    1    1    2    0  501 -0.16129532702E+01 -0.34544388069E+01 -0.29966268271E+01  0.48491797828E+01  0.25500000000E-02 0.  1.
<mgrwt>
<rscale>  0 0.38124496E+01</rscale>
<asrwt>0</asrwt>
<pdfrwt beam="1">0</pdfrwt>
<pdfrwt beam="2">0</pdfrwt>
<totfact> 0.97298638E+11</totfact>
</mgrwt>
</event>
<event>
 4    1  0.3064748E+006  0.4029906E+01  0.7546771E-02  0.2271614E+00
         22   -1    0    0    0    0  0.00000000000E+00  0.00000000000E+00  0.12147341436E+01  0.12147341436E+01  0.00000000000E+00 0. -1.
         22   -1    0    0    0    0 -0.00000000000E+00 -0.00000000000E+00 -0.13450908041E+02  0.13450908041E+02  0.00000000000E+00 0.  1.
          2    1    1    2  501    0 -0.40252569588E+01  0.19349503143E+00 -0.55469079698E+01  0.68562619874E+01  0.25500000000E-02 0.  1.
         -2    1    1    2    0  501  0.40252569588E+01 -0.19349503143E+00 -0.66892659274E+01  0.78093801970E+01  0.25500000000E-02 0. -1.
<mgrwt>
<rscale>  0 0.40299058E+01</rscale>
<asrwt>0</asrwt>
<pdfrwt beam="1">0</pdfrwt>
<pdfrwt beam="2">0</pdfrwt>
<totfact> 0.88531786E+11</totfact>
</mgrwt>
</event>
<event>
 4    1  0.3064748E+006  0.2857377E+01  0.7546771E-02  0.2569266E+00
         22   -1    0    0    0    0  0.00000000000E+00  0.00000000000E+00  0.21342745275E+02  0.21342745275E+02  0.00000000000E+00 0. -1.
         22   -1    0    0    0    0 -0.00000000000E+00 -0.00000000000E+00 -0.23642496424E+01  0.23642496424E+01  0.00000000000E+00 0.  1.
          2    1    1    2  501    0 -0.27131604263E+01 -0.89630216688E+00  0.20341480254E+02  0.20541188439E+02  0.25500000000E-02 0. -1.
         -2    1    1    2    0  501  0.27131604263E+01  0.89630216688E+00 -0.13629846217E+01  0.31658064778E+01  0.25500000000E-02 0.  1.
<mgrwt>
<rscale>  0 0.28573770E+01</rscale>
<asrwt>0</asrwt>
<pdfrwt beam="1">0</pdfrwt>
<pdfrwt beam="2">0</pdfrwt>
<totfact> 0.23192415E+11</totfact>
</mgrwt>
</event>
<event>
 4    1  0.3064748E+006  0.3115707E+01  0.7546771E-02  0.2486834E+00
         22   -1    0    0    0    0  0.00000000000E+00  0.00000000000E+00  0.54193484617E+01  0.54193484617E+01  0.00000000000E+00 0.  1.
         22   -1    0    0    0    0 -0.00000000000E+00 -0.00000000000E+00 -0.61522418769E+01  0.61522418769E+01  0.00000000000E+00 0. -1.
          2    1    1    2  501    0  0.30966769967E+01 -0.34382611966E+00  0.45047642738E+01  0.54772741841E+01  0.25500000000E-02 0.  1.
         -2    1    1    2    0  501 -0.30966769967E+01  0.34382611966E+00 -0.52376576889E+01  0.60943161545E+01  0.25500000000E-02 0. -1.
<mgrwt>
<rscale>  0 0.31157072E+01</rscale>
<asrwt>0</asrwt>
<pdfrwt beam="1">0</pdfrwt>
<pdfrwt beam="2">0</pdfrwt>
<totfact> 0.39881721E+11</totfact>
</mgrwt>
</event>
<event>
 4    1  0.3064748E+006  0.4662167E+01  0.7546771E-02  0.2166161E+00
         22   -1    0    0    0    0  0.00000000000E+00  0.00000000000E+00  0.39306441609E+01  0.39306441609E+01  0.00000000000E+00 0.  1.
         22   -1    0    0    0    0 -0.00000000000E+00 -0.00000000000E+00 -0.73280293279E+01  0.73280293279E+01  0.00000000000E+00 0. -1.
          2    1    1    2  501    0 -0.24606990573E+01  0.39598934558E+01 -0.44872672826E+01  0.64708090838E+01  0.25500000000E-02 0. -1.
         -2    1    1    2    0  501  0.24606990573E+01 -0.39598934558E+01  0.10898821155E+01  0.47878644049E+01  0.25500000000E-02 0.  1.
<mgrwt>
<rscale>  0 0.46621671E+01</rscale>
<asrwt>0</asrwt>
<pdfrwt beam="1">0</pdfrwt>
<pdfrwt beam="2">0</pdfrwt>
<totfact> 0.47296300E+11</totfact>
</mgrwt>
</event>
<event>
 4    1  0.3064748E+006  0.6829116E+01  0.7546771E-02  0.1952445E+00
         22   -1    0    0    0    0  0.00000000000E+00  0.00000000000E+00  0.14807410336E+02  0.14807410336E+02  0.00000000000E+00 0.  1.
         22   -1    0    0    0    0 -0.00000000000E+00 -0.00000000000E+00 -0.33638084153E+01  0.33638084153E+01  0.00000000000E+00 0. -1.
          2    1    1    2  501    0 -0.99463381538E+00  0.67562948933E+01  0.80147663306E+01  0.10529639260E+02  0.25500000000E-02 0.  1.
         -2    1    1    2    0  501  0.99463381538E+00 -0.67562948933E+01  0.34288355899E+01  0.76415794910E+01  0.25500000000E-02 0. -1.
<mgrwt>
<rscale>  0 0.68291159E+01</rscale>
<asrwt>0</asrwt>
<pdfrwt beam="1">0</pdfrwt>
<pdfrwt beam="2">0</pdfrwt>
<totfact> 0.24188918E+11</totfact>
</mgrwt>
</event>
<event>
 4    1  0.3064748E+006  0.2133469E+01  0.7546771E-02  0.2896112E+00
         22   -1    0    0    0    0  0.00000000000E+00  0.00000000000E+00  0.41937749809E+00  0.41937749809E+00  0.00000000000E+00 0.  1.
         22   -1    0    0    0    0 -0.00000000000E+00 -0.00000000000E+00 -0.10965490555E+02  0.10965490555E+02  0.00000000000E+00 0. -1.
          2    1    1    2  501    0 -0.11456432217E+01  0.17997734318E+01 -0.46976333596E+01  0.51594038881E+01  0.25500000000E-02 0. -1.
         -2    1    1    2    0  501  0.11456432217E+01 -0.17997734318E+01 -0.58484796978E+01  0.62254641654E+01  0.25500000000E-02 0.  1.
<mgrwt>
<rscale>  0 0.21334688E+01</rscale>
<asrwt>0</asrwt>
<pdfrwt beam="1">0</pdfrwt>
<pdfrwt beam="2">0</pdfrwt>
<totfact> 0.38006347E+12</totfact>
</mgrwt>
</event>
<event>
 4    1  0.3064748E+006  0.2001828E+01  0.7546771E-02  0.2979496E+00
         22   -1    0    0    0    0  0.00000000000E+00  0.00000000000E+00  0.50089355634E+00  0.50089355634E+00  0.00000000000E+00 0. -1.
         22   -1    0    0    0    0 -0.00000000000E+00 -0.00000000000E+00 -0.80287928779E+01  0.80287928779E+01  0.00000000000E+00 0.  1.
          2    1    1    2  501    0 -0.19680973225E+01 -0.36592663554E+00 -0.40178626395E+01  0.44889348476E+01  0.25500000000E-02 0. -1.
         -2    1    1    2    0  501  0.19680973225E+01  0.36592663554E+00 -0.35100366821E+01  0.40407515867E+01  0.25500000000E-02 0.  1.
<mgrwt>
<rscale>  0 0.20018281E+01</rscale>
<asrwt>0</asrwt>
<pdfrwt beam="1">0</pdfrwt>
<pdfrwt beam="2">0</pdfrwt>
<totfact> 0.45331435E+12</totfact>
</mgrwt>
</event>
<event>
 4    1  0.3064748E+006  0.3555906E+01  0.7546771E-02  0.2371178E+00
         22   -1    0    0    0    0  0.00000000000E+00  0.00000000000E+00  0.17124315802E+02  0.17124315802E+02  0.00000000000E+00 0.  1.
         22   -1    0    0    0    0 -0.00000000000E+00 -0.00000000000E+00 -0.74727611208E+00  0.74727611208E+00  0.00000000000E+00 0. -1.
          2    1    1    2  501    0 -0.13303827592E+01 -0.32976567004E+01  0.91628140791E+01  0.98286126361E+01  0.25500000000E-02 0.  1.
         -2    1    1    2    0  501  0.13303827592E+01  0.32976567004E+01  0.72142256108E+01  0.80429792779E+01  0.25500000000E-02 0. -1.
<mgrwt>
<rscale>  0 0.35559056E+01</rscale>
<asrwt>0</asrwt>
<pdfrwt beam="1">0</pdfrwt>
<pdfrwt beam="2">0</pdfrwt>
<totfact> 0.11448372E+12</totfact>
</mgrwt>
</event>
<event>
 4    1  0.3064748E+006  0.2286239E+01  0.7546771E-02  0.2810995E+00
         22   -1    0    0    0    0  0.00000000000E+00  0.00000000000E+00  0.58821553670E+01  0.58821553670E+01  0.00000000000E+00 0. -1.
         22   -1    0    0    0    0 -0.00000000000E+00 -0.00000000000E+00 -0.11334249156E+01  0.11334249156E+01  0.00000000000E+00 0.  1.
          2    1    1    2  501    0 -0.12139311140E+01 -0.19373318815E+01  0.40046519990E+01  0.46113043387E+01  0.25500000000E-02 0. -1.
         -2    1    1    2    0  501  0.12139311140E+01  0.19373318815E+01  0.74407845236E+00  0.24042759439E+01  0.25500000000E-02 0.  1.
<mgrwt>
<rscale>  0 0.22862393E+01</rscale>
<asrwt>0</asrwt>
<pdfrwt beam="1">0</pdfrwt>
<pdfrwt beam="2">0</pdfrwt>
<totfact> 0.25993281E+12</totfact>
</mgrwt>
</event>
<event>
 4    1  0.3064748E+006  0.3323283E+01  0.7546771E-02  0.2428938E+00
         22   -1    0    0    0    0  0.00000000000E+00  0.00000000000E+00  0.18470091801E+02  0.18470091801E+02  0.00000000000E+00 0.  1.
         22   -1    0    0    0    0 -0.00000000000E+00 -0.00000000000E+00 -0.24463285274E+01  0.24463285274E+01  0.00000000000E+00 0. -1.
          2    1    1    2  501    0  0.85395473717E+00 -0.32116917265E+01  0.17102539665E+02  0.17422430139E+02  0.25500000000E-02 0.  1.
         -2    1    1    2    0  501 -0.85395473717E+00  0.32116917265E+01 -0.10787763916E+01  0.34939901896E+01  0.25500000000E-02 0. -1.
<mgrwt>
<rscale>  0 0.33232829E+01</rscale>
<asrwt>0</asrwt>
<pdfrwt beam="1">0</pdfrwt>
<pdfrwt beam="2">0</pdfrwt>
<totfact> 0.26692274E+11</totfact>
</mgrwt>
</event>
<event>
 4    1  0.3064748E+006  0.2115563E+01  0.7546771E-02  0.2906861E+00
         22   -1    0    0    0    0  0.00000000000E+00  0.00000000000E+00  0.51197377328E+01  0.51197377328E+01  0.00000000000E+00 0.  1.
         22   -1    0    0    0    0 -0.00000000000E+00 -0.00000000000E+00 -0.88836822284E+00  0.88836822284E+00  0.00000000000E+00 0. -1.
          2    1    1    2  501    0 -0.57135557790E+00 -0.20369470123E+01  0.24952373168E+01  0.32713630335E+01  0.25500000000E-02 0.  1.
         -2    1    1    2    0  501  0.57135557790E+00  0.20369470123E+01  0.17361321931E+01  0.27367429221E+01  0.25500000000E-02 0. -1.
<mgrwt>
<rscale>  0 0.21155630E+01</rscale>
<asrwt>0</asrwt>
<pdfrwt beam="1">0</pdfrwt>
<pdfrwt beam="2">0</pdfrwt>
<totfact> 0.40480917E+12</totfact>
</mgrwt>
</event>
<event>
 4    1  0.3064748E+006  0.2828328E+01  0.7546771E-02  0.2579381E+00
         22   -1    0    0    0    0  0.00000000000E+00  0.00000000000E+00  0.12633575403E+01  0.12633575403E+01  0.00000000000E+00 0.  1.
         22   -1    0    0    0    0 -0.00000000000E+00 -0.00000000000E+00 -0.74343518864E+01  0.74343518864E+01  0.00000000000E+00 0. -1.
          2    1    1    2  501    0 -0.68519704705E+00 -0.27440729084E+01 -0.14108024295E+01  0.31606646639E+01  0.25500000000E-02 0.  1.
         -2    1    1    2    0  501  0.68519704705E+00  0.27440729084E+01 -0.47601919166E+01  0.55370447628E+01  0.25500000000E-02 0. -1.
<mgrwt>
<rscale>  0 0.28283277E+01</rscale>
<asrwt>0</asrwt>
<pdfrwt beam="1">0</pdfrwt>
<pdfrwt beam="2">0</pdfrwt>
<totfact> 0.17355615E+12</totfact>
</mgrwt>
</event>
<event>
 4    1  0.3064748E+006  0.2038490E+01  0.7546771E-02  0.2955219E+00
         22   -1    0    0    0    0  0.00000000000E+00  0.00000000000E+00  0.45558892949E+01  0.45558892949E+01  0.00000000000E+00 0.  1.
         22   -1    0    0    0    0 -0.00000000000E+00 -0.00000000000E+00 -0.14514336631E+01  0.14514336631E+01  0.00000000000E+00 0. -1.
          2    1    1    2  501    0 -0.16147528637E+01 -0.12441898496E+01  0.33831918837E+01  0.39498644302E+01  0.25500000000E-02 0.  1.
         -2    1    1    2    0  501  0.16147528637E+01  0.12441898496E+01 -0.27873625188E+00  0.20574585277E+01  0.25500000000E-02 0. -1.
<mgrwt>
<rscale>  0 0.20384901E+01</rscale>
<asrwt>0</asrwt>
<pdfrwt beam="1">0</pdfrwt>
<pdfrwt beam="2">0</pdfrwt>
<totfact> 0.26493551E+12</totfact>
</mgrwt>
</event>
<event>
 4    1  0.3064748E+006  0.2104001E+01  0.7546771E-02  0.2913896E+00
         22   -1    0    0    0    0  0.00000000000E+00  0.00000000000E+00  0.36525155111E+01  0.36525155111E+01  0.00000000000E+00 0. -1.
         22   -1    0    0    0    0 -0.00000000000E+00 -0.00000000000E+00 -0.12225243143E+01  0.12225243143E+01  0.00000000000E+00 0.  1.
          2    1    1    2  501    0  0.16222081645E+01  0.13398717427E+01  0.14412343483E+01  0.25502898982E+01  0.25500000000E-02 0. -1.
         -2    1    1    2    0  501 -0.16222081645E+01 -0.13398717427E+01  0.98875684858E+00  0.23247499272E+01  0.25500000000E-02 0.  1.
<mgrwt>
<rscale>  0 0.21040015E+01</rscale>
<asrwt>0</asrwt>
<pdfrwt beam="1">0</pdfrwt>
<pdfrwt beam="2">0</pdfrwt>
<totfact> 0.41853054E+12</totfact>
</mgrwt>
</event>
<event>
 4    1  0.3064748E+006  0.2268760E+01  0.7546771E-02  0.2820178E+00
         22   -1    0    0    0    0  0.00000000000E+00  0.00000000000E+00  0.19997916346E+02  0.19997916346E+02  0.00000000000E+00 0. -1.
         22   -1    0    0    0    0 -0.00000000000E+00 -0.00000000000E+00 -0.34743724712E+00  0.34743724712E+00  0.00000000000E+00 0.  1.
          2    1    1    2  501    0  0.21574626775E+01  0.70186941590E+00  0.15004064483E+02  0.15174624325E+02  0.25500000000E-02 0. -1.
         -2    1    1    2    0  501 -0.21574626775E+01 -0.70186941590E+00  0.46464146152E+01  0.51707292678E+01  0.25500000000E-02 0.  1.
<mgrwt>
<rscale>  0 0.22687601E+01</rscale>
<asrwt>0</asrwt>
<pdfrwt beam="1">0</pdfrwt>
<pdfrwt beam="2">0</pdfrwt>
<totfact> 0.22425894E+12</totfact>
</mgrwt>
</event>
<event>
 4    1  0.3064748E+006  0.2522646E+01  0.7546771E-02  0.2698629E+00
         22   -1    0    0    0    0  0.00000000000E+00  0.00000000000E+00  0.12472252462E+02  0.12472252462E+02  0.00000000000E+00 0.  1.
         22   -1    0    0    0    0 -0.00000000000E+00 -0.00000000000E+00 -0.85272860060E+00  0.85272860060E+00  0.00000000000E+00 0. -1.
          2    1    1    2  501    0  0.62223740970E+00 -0.24447002810E+01  0.10032159939E+02  0.10344466076E+02  0.25500000000E-02 0.  1.
         -2    1    1    2    0  501 -0.62223740970E+00  0.24447002810E+01  0.15873639218E+01  0.29805149858E+01  0.25500000000E-02 0. -1.
<mgrwt>
<rscale>  0 0.25226465E+01</rscale>
<asrwt>0</asrwt>
<pdfrwt beam="1">0</pdfrwt>
<pdfrwt beam="2">0</pdfrwt>
<totfact> 0.14546422E+12</totfact>
</mgrwt>
</event>
<event>
 4    1  0.3064748E+006  0.2554768E+01  0.7546771E-02  0.2684866E+00
         22   -1    0    0    0    0  0.00000000000E+00  0.00000000000E+00  0.82647682615E+02  0.82647682615E+02  0.00000000000E+00 0.  1.
         22   -1    0    0    0    0 -0.00000000000E+00 -0.00000000000E+00 -0.95813431496E-01  0.95813431496E-01  0.00000000000E+00 0. -1.
          2    1    1    2  501    0 -0.24192961054E+01  0.82087779268E+00  0.58621245668E+02  0.58676888842E+02  0.25500000000E-02 0.  1.
         -2    1    1    2    0  501  0.24192961054E+01 -0.82087779268E+00  0.23930623515E+02  0.24066607204E+02  0.25500000000E-02 0. -1.
<mgrwt>
<rscale>  0 0.25547682E+01</rscale>
<asrwt>0</asrwt>
<pdfrwt beam="1">0</pdfrwt>
<pdfrwt beam="2">0</pdfrwt>
<totfact> 0.14820564E+12</totfact>
</mgrwt>
</event>
<event>
 4    1  0.3064748E+006  0.2881854E+01  0.7546771E-02  0.2560887E+00
         22   -1    0    0    0    0  0.00000000000E+00  0.00000000000E+00  0.82949010654E+01  0.82949010654E+01  0.00000000000E+00 0.  1.
         22   -1    0    0    0    0 -0.00000000000E+00 -0.00000000000E+00 -0.21041552571E+01  0.21041552571E+01  0.00000000000E+00 0. -1.
          2    1    1    2  501    0  0.28562127548E+01  0.38356802280E+00  0.68597974529E+01  0.74405579983E+01  0.25500000000E-02 0.  1.
         -2    1    1    2    0  501 -0.28562127548E+01 -0.38356802280E+00 -0.66905164461E+00  0.29584983242E+01  0.25500000000E-02 0. -1.
<mgrwt>
<rscale>  0 0.28818540E+01</rscale>
<asrwt>0</asrwt>
<pdfrwt beam="1">0</pdfrwt>
<pdfrwt beam="2">0</pdfrwt>
<totfact> 0.84520459E+11</totfact>
</mgrwt>
</event>
<event>
 4    1  0.3064748E+006  0.2097912E+01  0.7546771E-02  0.2917631E+00
         22   -1    0    0    0    0  0.00000000000E+00  0.00000000000E+00  0.58848512331E+01  0.58848512331E+01  0.00000000000E+00 0.  1.
         22   -1    0    0    0    0 -0.00000000000E+00 -0.00000000000E+00 -0.82637991792E+00  0.82637991792E+00  0.00000000000E+00 0. -1.
          2    1    1    2  501    0  0.13554407227E+01  0.16012517649E+01  0.35633859903E+01  0.41350880264E+01  0.25500000000E-02 0.  1.
         -2    1    1    2    0  501 -0.13554407227E+01 -0.16012517649E+01  0.14950853249E+01  0.25761431247E+01  0.25500000000E-02 0. -1.
<mgrwt>
<rscale>  0 0.20979116E+01</rscale>
<asrwt>0</asrwt>
<pdfrwt beam="1">0</pdfrwt>
<pdfrwt beam="2">0</pdfrwt>
<totfact> 0.37257375E+12</totfact>
</mgrwt>
</event>
<event>
 4    1  0.3064748E+006  0.7391136E+01  0.7546771E-02  0.1913594E+00
         22   -1    0    0    0    0  0.00000000000E+00  0.00000000000E+00  0.23876416987E+01  0.23876416987E+01  0.00000000000E+00 0. -1.
         22   -1    0    0    0    0 -0.00000000000E+00 -0.00000000000E+00 -0.44159789210E+02  0.44159789210E+02  0.00000000000E+00 0.  1.
          2    1    1    2  501    0 -0.54396174548E+01  0.50039425773E+01 -0.47299412053E+01  0.87750344546E+01  0.25500000000E-02 0. -1.
         -2    1    1    2    0  501  0.54396174548E+01 -0.50039425773E+01 -0.37042206306E+02  0.37772396454E+02  0.25500000000E-02 0.  1.
<mgrwt>
<rscale>  0 0.73911356E+01</rscale>
<asrwt>0</asrwt>
<pdfrwt beam="1">0</pdfrwt>
<pdfrwt beam="2">0</pdfrwt>
<totfact> 0.90597716E+10</totfact>
</mgrwt>
</event>
<event>
 4    1  0.3064748E+006  0.2235414E+01  0.7546771E-02  0.2838077E+00
         22   -1    0    0    0    0  0.00000000000E+00  0.00000000000E+00  0.64846078378E+00  0.64846078378E+00  0.00000000000E+00 0.  1.
         22   -1    0    0    0    0 -0.00000000000E+00 -0.00000000000E+00 -0.24212720670E+02  0.24212720670E+02  0.00000000000E+00 0. -1.
          2    1    1    2  501    0 -0.17289651144E+01 -0.14169505737E+01 -0.15185322071E+01  0.27024092698E+01  0.25500000000E-02 0.  1.
         -2    1    1    2    0  501  0.17289651144E+01  0.14169505737E+01 -0.22045727679E+02  0.22158772184E+02  0.25500000000E-02 0. -1.
<mgrwt>
<rscale>  0 0.22354140E+01</rscale>
<asrwt>0</asrwt>
<pdfrwt beam="1">0</pdfrwt>
<pdfrwt beam="2">0</pdfrwt>
<totfact> 0.87268351E+11</totfact>
</mgrwt>
</event>
<event>
 4    1  0.3064748E+006  0.4025208E+01  0.7546771E-02  0.2272502E+00
         22   -1    0    0    0    0  0.00000000000E+00  0.00000000000E+00  0.82512043339E+01  0.82512043339E+01  0.00000000000E+00 0. -1.
         22   -1    0    0    0    0 -0.00000000000E+00 -0.00000000000E+00 -0.38572387007E+01  0.38572387007E+01  0.00000000000E+00 0.  1.
          2    1    1    2  501    0  0.40206976167E+01 -0.19048943668E+00  0.64389305495E+01  0.75935583671E+01  0.25500000000E-02 0. -1.
         -2    1    1    2    0  501 -0.40206976167E+01  0.19048943668E+00 -0.20449649162E+01  0.45148846676E+01  0.25500000000E-02 0.  1.
<mgrwt>
<rscale>  0 0.40252083E+01</rscale>
<asrwt>0</asrwt>
<pdfrwt beam="1">0</pdfrwt>
<pdfrwt beam="2">0</pdfrwt>
<totfact> 0.41937603E+11</totfact>
</mgrwt>
</event>
<event>
 4    1  0.3064748E+006  0.5574941E+01  0.7546771E-02  0.2060045E+00
         22   -1    0    0    0    0  0.00000000000E+00  0.00000000000E+00  0.87432705359E+01  0.87432705359E+01  0.00000000000E+00 0. -1.
         22   -1    0    0    0    0 -0.00000000000E+00 -0.00000000000E+00 -0.73393408543E+01  0.73393408543E+01  0.00000000000E+00 0.  1.
          2    1    1    2  501    0  0.19181889513E+01  0.52345495271E+01  0.64763888671E+01  0.85453833656E+01  0.25500000000E-02 0. -1.
         -2    1    1    2    0  501 -0.19181889513E+01 -0.52345495271E+01 -0.50724591854E+01  0.75372280246E+01  0.25500000000E-02 0.  1.
<mgrwt>
<rscale>  0 0.55749407E+01</rscale>
<asrwt>0</asrwt>
<pdfrwt beam="1">0</pdfrwt>
<pdfrwt beam="2">0</pdfrwt>
<totfact> 0.18233725E+11</totfact>
</mgrwt>
</event>
<event>
 4    1  0.3064748E+006  0.7693679E+01  0.7546771E-02  0.1894491E+00
         22   -1    0    0    0    0  0.00000000000E+00  0.00000000000E+00  0.24360709300E+01  0.24360709300E+01  0.00000000000E+00 0. -1.
         22   -1    0    0    0    0 -0.00000000000E+00 -0.00000000000E+00 -0.27305086789E+02  0.27305086789E+02  0.00000000000E+00 0.  1.
          2    1    1    2  501    0 -0.76933702074E+01  0.68930423095E-01 -0.74999539892E+01  0.10744394487E+02  0.25500000000E-02 0. -1.
         -2    1    1    2    0  501  0.76933702074E+01 -0.68930423095E-01 -0.17369061870E+02  0.18996763232E+02  0.25500000000E-02 0.  1.
<mgrwt>
<rscale>  0 0.76936794E+01</rscale>
<asrwt>0</asrwt>
<pdfrwt beam="1">0</pdfrwt>
<pdfrwt beam="2">0</pdfrwt>
<totfact> 0.16426134E+11</totfact>
</mgrwt>
</event>
<event>
 4    1  0.3064748E+006  0.2053681E+01  0.7546771E-02  0.2945408E+00
         22   -1    0    0    0    0  0.00000000000E+00  0.00000000000E+00  0.23435742816E+00  0.23435742816E+00  0.00000000000E+00 0.  1.
         22   -1    0    0    0    0 -0.00000000000E+00 -0.00000000000E+00 -0.18916512876E+02  0.18916512876E+02  0.00000000000E+00 0. -1.
          2    1    1    2  501    0  0.10526666884E+01  0.17633753995E+01 -0.72293302724E+01  0.75153724223E+01  0.25500000000E-02 0.  1.
         -2    1    1    2    0  501 -0.10526666884E+01 -0.17633753995E+01 -0.11452825175E+02  0.11635497882E+02  0.25500000000E-02 0. -1.
<mgrwt>
<rscale>  0 0.20536812E+01</rscale>
<asrwt>0</asrwt>
<pdfrwt beam="1">0</pdfrwt>
<pdfrwt beam="2">0</pdfrwt>
<totfact> 0.37359388E+12</totfact>
</mgrwt>
</event>
<event>
 4    1  0.3064748E+006  0.2019648E+01  0.7546771E-02  0.2967588E+00
         22   -1    0    0    0    0  0.00000000000E+00  0.00000000000E+00  0.12250627439E+02  0.12250627439E+02  0.00000000000E+00 0. -1.
         22   -1    0    0    0    0 -0.00000000000E+00 -0.00000000000E+00 -0.33543029607E+00  0.33543029607E+00  0.00000000000E+00 0.  1.
          2    1    1    2  501    0 -0.20159245519E+01  0.12255134002E+00  0.54176230271E+01  0.57818350371E+01  0.25500000000E-02 0.  1.
         -2    1    1    2    0  501  0.20159245519E+01 -0.12255134002E+00  0.64975741154E+01  0.68042226976E+01  0.25500000000E-02 0. -1.
<mgrwt>
<rscale>  0 0.20196478E+01</rscale>
<asrwt>0</asrwt>
<pdfrwt beam="1">0</pdfrwt>
<pdfrwt beam="2">0</pdfrwt>
<totfact> 0.42689801E+12</totfact>
</mgrwt>
</event>
<event>
 4    1  0.3064748E+006  0.3708517E+01  0.7546771E-02  0.2336734E+00
         22   -1    0    0    0    0  0.00000000000E+00  0.00000000000E+00  0.10188496749E+03  0.10188496749E+03  0.00000000000E+00 0. -1.
         22   -1    0    0    0    0 -0.00000000000E+00 -0.00000000000E+00 -0.14496756348E+00  0.14496756348E+00  0.00000000000E+00 0.  1.
          2    1    1    2  501    0 -0.19948107250E+01  0.31263108535E+01  0.64255988537E+02  0.64362917575E+02  0.25500000000E-02 0. -1.
         -2    1    1    2    0  501  0.19948107250E+01 -0.31263108535E+01  0.37484011390E+02  0.37667017479E+02  0.25500000000E-02 0.  1.
<mgrwt>
<rscale>  0 0.37085167E+01</rscale>
<asrwt>0</asrwt>
<pdfrwt beam="1">0</pdfrwt>
<pdfrwt beam="2">0</pdfrwt>
<totfact> 0.69938662E+11</totfact>
</mgrwt>
</event>
<event>
 4    1  0.3064748E+006  0.2068984E+01  0.7546771E-02  0.2935667E+00
         22   -1    0    0    0    0  0.00000000000E+00  0.00000000000E+00  0.55221295201E+01  0.55221295201E+01  0.00000000000E+00 0.  1.
         22   -1    0    0    0    0 -0.00000000000E+00 -0.00000000000E+00 -0.11349917363E+01  0.11349917363E+01  0.00000000000E+00 0. -1.
          2    1    1    2  501    0  0.17847818384E+01  0.10465384959E+01  0.40676664364E+01  0.45636176192E+01  0.25500000000E-02 0.  1.
         -2    1    1    2    0  501 -0.17847818384E+01 -0.10465384959E+01  0.31947134741E+00  0.20935036371E+01  0.25500000000E-02 0. -1.
<mgrwt>
<rscale>  0 0.20689842E+01</rscale>
<asrwt>0</asrwt>
<pdfrwt beam="1">0</pdfrwt>
<pdfrwt beam="2">0</pdfrwt>
<totfact> 0.27974041E+12</totfact>
</mgrwt>
</event>
<event>
 4    1  0.3064748E+006  0.2043566E+01  0.7546771E-02  0.2951925E+00
         22   -1    0    0    0    0  0.00000000000E+00  0.00000000000E+00  0.30632457651E+01  0.30632457651E+01  0.00000000000E+00 0.  1.
         22   -1    0    0    0    0 -0.00000000000E+00 -0.00000000000E+00 -0.39019493321E+01  0.39019493321E+01  0.00000000000E+00 0. -1.
          2    1    1    2  501    0 -0.17094131226E+01  0.11198498688E+01  0.23897191356E+01  0.31443474684E+01  0.25500000000E-02 0.  1.
         -2    1    1    2    0  501  0.17094131226E+01 -0.11198498688E+01 -0.32284227026E+01  0.38208476287E+01  0.25500000000E-02 0. -1.
<mgrwt>
<rscale>  0 0.20435664E+01</rscale>
<asrwt>0</asrwt>
<pdfrwt beam="1">0</pdfrwt>
<pdfrwt beam="2">0</pdfrwt>
<totfact> 0.13380972E+12</totfact>
</mgrwt>
</event>
<event>
 4    1  0.3064748E+006  0.2857223E+01  0.7546771E-02  0.2569320E+00
         22   -1    0    0    0    0  0.00000000000E+00  0.00000000000E+00  0.45668769805E+02  0.45668769805E+02  0.00000000000E+00 0.  1.
         22   -1    0    0    0    0 -0.00000000000E+00 -0.00000000000E+00 -0.35085128250E+01  0.35085128250E+01  0.00000000000E+00 0. -1.
          2    1    1    2  501    0 -0.26491623865E+01 -0.10703520762E+01  0.45034183104E+02  0.45124731238E+02  0.25500000000E-02 0.  1.
         -2    1    1    2    0  501  0.26491623865E+01  0.10703520762E+01 -0.28739261242E+01  0.40525513923E+01  0.25500000000E-02 0. -1.
<mgrwt>
<rscale>  0 0.28572227E+01</rscale>
<asrwt>0</asrwt>
<pdfrwt beam="1">0</pdfrwt>
<pdfrwt beam="2">0</pdfrwt>
<totfact> 0.55323435E+10</totfact>
</mgrwt>
</event>
<event>
 4    1  0.3064748E+006  0.3005962E+01  0.7546771E-02  0.2520299E+00
         22   -1    0    0    0    0  0.00000000000E+00  0.00000000000E+00  0.18917225745E+01  0.18917225745E+01  0.00000000000E+00 0. -1.
         22   -1    0    0    0    0 -0.00000000000E+00 -0.00000000000E+00 -0.48359958909E+01  0.48359958909E+01  0.00000000000E+00 0.  1.
          2    1    1    2  501    0 -0.23375930364E+01  0.18898300235E+01 -0.10990127288E+01  0.32005677937E+01  0.25500000000E-02 0. -1.
         -2    1    1    2    0  501  0.23375930364E+01 -0.18898300235E+01 -0.18452605877E+01  0.35271506717E+01  0.25500000000E-02 0.  1.
<mgrwt>
<rscale>  0 0.30059616E+01</rscale>
<asrwt>0</asrwt>
<pdfrwt beam="1">0</pdfrwt>
<pdfrwt beam="2">0</pdfrwt>
<totfact> 0.18192851E+12</totfact>
</mgrwt>
</event>
<event>
 4    1  0.3064748E+006  0.2968646E+01  0.7546771E-02  0.2532182E+00
         22   -1    0    0    0    0  0.00000000000E+00  0.00000000000E+00  0.46318503316E+01  0.46318503316E+01  0.00000000000E+00 0. -1.
         22   -1    0    0    0    0 -0.00000000000E+00 -0.00000000000E+00 -0.20853448802E+01  0.20853448802E+01  0.00000000000E+00 0.  1.
          2    1    1    2  501    0 -0.26358098552E+01 -0.13657822209E+01  0.22673158471E+01  0.37354494135E+01  0.25500000000E-02 0. -1.
         -2    1    1    2    0  501  0.26358098552E+01  0.13657822209E+01  0.27918960433E+00  0.29817457983E+01  0.25500000000E-02 0.  1.
<mgrwt>
<rscale>  0 0.29686464E+01</rscale>
<asrwt>0</asrwt>
<pdfrwt beam="1">0</pdfrwt>
<pdfrwt beam="2">0</pdfrwt>
<totfact> 0.17102801E+12</totfact>
</mgrwt>
</event>
<event>
 4    1  0.3064748E+006  0.2175445E+01  0.7546771E-02  0.2871583E+00
         22   -1    0    0    0    0  0.00000000000E+00  0.00000000000E+00  0.60488427578E+01  0.60488427578E+01  0.00000000000E+00 0. -1.
         22   -1    0    0    0    0 -0.00000000000E+00 -0.00000000000E+00 -0.12135732104E+01  0.12135732104E+01  0.00000000000E+00 0.  1.
          2    1    1    2  501    0  0.20710844710E+01 -0.66570636382E+00  0.45820888059E+01  0.50722874698E+01  0.25500000000E-02 0. -1.
         -2    1    1    2    0  501 -0.20710844710E+01  0.66570636382E+00  0.25318074156E+00  0.21901284983E+01  0.25500000000E-02 0.  1.
<mgrwt>
<rscale>  0 0.21754453E+01</rscale>
<asrwt>0</asrwt>
<pdfrwt beam="1">0</pdfrwt>
<pdfrwt beam="2">0</pdfrwt>
<totfact> 0.23250119E+12</totfact>
</mgrwt>
</event>
<event>
 4    1  0.3064748E+006  0.6111732E+01  0.7546771E-02  0.2009810E+00
         22   -1    0    0    0    0  0.00000000000E+00  0.00000000000E+00  0.45741231137E+00  0.45741231137E+00  0.00000000000E+00 0.  1.
         22   -1    0    0    0    0 -0.00000000000E+00 -0.00000000000E+00 -0.10239741648E+03  0.10239741648E+03  0.00000000000E+00 0. -1.
          2    1    1    2  501    0 -0.43948556283E+01 -0.42471763523E+01 -0.27827778944E+02  0.28491025788E+02  0.25500000000E-02 0.  1.
         -2    1    1    2    0  501  0.43948556283E+01  0.42471763523E+01 -0.74112225227E+02  0.74363803007E+02  0.25500000000E-02 0. -1.
<mgrwt>
<rscale>  0 0.61117321E+01</rscale>
<asrwt>0</asrwt>
<pdfrwt beam="1">0</pdfrwt>
<pdfrwt beam="2">0</pdfrwt>
<totfact> 0.19191529E+11</totfact>
</mgrwt>
</event>
<event>
 4    1  0.3064748E+006  0.3551730E+01  0.7546771E-02  0.2372156E+00
         22   -1    0    0    0    0  0.00000000000E+00  0.00000000000E+00  0.11647835257E+01  0.11647835257E+01  0.00000000000E+00 0.  1.
         22   -1    0    0    0    0 -0.00000000000E+00 -0.00000000000E+00 -0.13099108496E+02  0.13099108496E+02  0.00000000000E+00 0. -1.
          2    1    1    2  501    0 -0.33776513516E+01  0.10982933581E+01 -0.29989144159E+01  0.46484697621E+01  0.25500000000E-02 0.  1.
         -2    1    1    2    0  501  0.33776513516E+01 -0.10982933581E+01 -0.89354105547E+01  0.96154222599E+01  0.25500000000E-02 0. -1.
<mgrwt>
<rscale>  0 0.35517296E+01</rscale>
<asrwt>0</asrwt>
<pdfrwt beam="1">0</pdfrwt>
<pdfrwt beam="2">0</pdfrwt>
<totfact> 0.95957753E+11</totfact>
</mgrwt>
</event>
<event>
 4    1  0.3064748E+006  0.3053854E+01  0.7546771E-02  0.2505431E+00
         22   -1    0    0    0    0  0.00000000000E+00  0.00000000000E+00  0.85946032992E+02  0.85946032992E+02  0.00000000000E+00 0. -1.
         22   -1    0    0    0    0 -0.00000000000E+00 -0.00000000000E+00 -0.21517125639E+00  0.21517125639E+00  0.00000000000E+00 0.  1.
          2    1    1    2  501    0 -0.30424821164E+01 -0.26328459732E+00  0.73196836850E+02  0.73260514245E+02  0.25500000000E-02 0. -1.
         -2    1    1    2    0  501  0.30424821164E+01  0.26328459732E+00  0.12534024885E+02  0.12900690002E+02  0.25500000000E-02 0.  1.
<mgrwt>
<rscale>  0 0.30538537E+01</rscale>
<asrwt>0</asrwt>
<pdfrwt beam="1">0</pdfrwt>
<pdfrwt beam="2">0</pdfrwt>
<totfact> 0.57135162E+11</totfact>
</mgrwt>
</event>
<event>
 4    1  0.3064748E+006  0.3074098E+01  0.7546771E-02  0.2499271E+00
         22   -1    0    0    0    0  0.00000000000E+00  0.00000000000E+00  0.69600896192E+02  0.69600896192E+02  0.00000000000E+00 0. -1.
         22   -1    0    0    0    0 -0.00000000000E+00 -0.00000000000E+00 -0.24775640261E+00  0.24775640261E+00  0.00000000000E+00 0.  1.
          2    1    1    2  501    0  0.88006334940E+00 -0.29454305731E+01  0.11197112538E+02  0.11611434384E+02  0.25500000000E-02 0.  1.
         -2    1    1    2    0  501 -0.88006334940E+00  0.29454305731E+01  0.58156027251E+02  0.58237218210E+02  0.25500000000E-02 0. -1.
<mgrwt>
<rscale>  0 0.30740981E+01</rscale>
<asrwt>0</asrwt>
<pdfrwt beam="1">0</pdfrwt>
<pdfrwt beam="2">0</pdfrwt>
<totfact> 0.65158262E+11</totfact>
</mgrwt>
</event>
<event>
 4    1  0.3064748E+006  0.2277735E+01  0.7546771E-02  0.2815446E+00
         22   -1    0    0    0    0  0.00000000000E+00  0.00000000000E+00  0.15565005849E+00  0.15565005849E+00  0.00000000000E+00 0.  1.
         22   -1    0    0    0    0 -0.00000000000E+00 -0.00000000000E+00 -0.36099002197E+02  0.36099002197E+02  0.00000000000E+00 0. -1.
          2    1    1    2  501    0  0.38023080552E+00 -0.22457730902E+01 -0.12952694399E+02  0.13151439881E+02  0.25500000000E-02 0.  1.
         -2    1    1    2    0  501 -0.38023080552E+00  0.22457730902E+01 -0.22990657739E+02  0.23103212374E+02  0.25500000000E-02 0. -1.
<mgrwt>
<rscale>  0 0.22777354E+01</rscale>
<asrwt>0</asrwt>
<pdfrwt beam="1">0</pdfrwt>
<pdfrwt beam="2">0</pdfrwt>
<totfact> 0.26034078E+12</totfact>
</mgrwt>
</event>
<event>
 4    1  0.3064748E+006  0.2014048E+01  0.7546771E-02  0.2971308E+00
         22   -1    0    0    0    0  0.00000000000E+00  0.00000000000E+00  0.61902536466E+01  0.61902536466E+01  0.00000000000E+00 0. -1.
         22   -1    0    0    0    0 -0.00000000000E+00 -0.00000000000E+00 -0.65608130581E+00  0.65608130581E+00  0.00000000000E+00 0.  1.
          2    1    1    2  501    0  0.17705555181E+01  0.95995626698E+00  0.28862354967E+01  0.35194807461E+01  0.25500000000E-02 0. -1.
         -2    1    1    2    0  501 -0.17705555181E+01 -0.95995626698E+00  0.26479368442E+01  0.33268542064E+01  0.25500000000E-02 0.  1.
<mgrwt>
<rscale>  0 0.20140480E+01</rscale>
<asrwt>0</asrwt>
<pdfrwt beam="1">0</pdfrwt>
<pdfrwt beam="2">0</pdfrwt>
<totfact> 0.45592950E+12</totfact>
</mgrwt>
</event>
<event>
 4    1  0.3064748E+006  0.2098644E+01  0.7546771E-02  0.2917181E+00
         22   -1    0    0    0    0  0.00000000000E+00  0.00000000000E+00  0.25834710004E+02  0.25834710004E+02  0.00000000000E+00 0. -1.
         22   -1    0    0    0    0 -0.00000000000E+00 -0.00000000000E+00 -0.18465583367E+00  0.18465583367E+00  0.00000000000E+00 0.  1.
          2    1    1    2  501    0 -0.15976140309E+01  0.13608569141E+01  0.92204427801E+01  0.94562610844E+01  0.25500000000E-02 0.  1.
         -2    1    1    2    0  501  0.15976140309E+01 -0.13608569141E+01  0.16429611391E+02  0.16563104754E+02  0.25500000000E-02 0. -1.
<mgrwt>
<rscale>  0 0.20986445E+01</rscale>
<asrwt>0</asrwt>
<pdfrwt beam="1">0</pdfrwt>
<pdfrwt beam="2">0</pdfrwt>
<totfact> 0.32982172E+12</totfact>
</mgrwt>
</event>
<event>
 4    1  0.3064748E+006  0.2056322E+01  0.7546771E-02  0.2943717E+00
         22   -1    0    0    0    0  0.00000000000E+00  0.00000000000E+00  0.82052357251E+02  0.82052357251E+02  0.00000000000E+00 0.  1.
         22   -1    0    0    0    0 -0.00000000000E+00 -0.00000000000E+00 -0.10492413050E+00  0.10492413050E+00  0.00000000000E+00 0. -1.
          2    1    1    2  501    0 -0.33825711100E+00 -0.20283087919E+01  0.70276583796E+02  0.70306661782E+02  0.25500000000E-02 0.  1.
         -2    1    1    2    0  501  0.33825711100E+00  0.20283087919E+01  0.11670849325E+02  0.11850619600E+02  0.25500000000E-02 0. -1.
<mgrwt>
<rscale>  0 0.20563222E+01</rscale>
<asrwt>0</asrwt>
<pdfrwt beam="1">0</pdfrwt>
<pdfrwt beam="2">0</pdfrwt>
<totfact> 0.13535383E+12</totfact>
</mgrwt>
</event>
<event>
 4    1  0.3064748E+006  0.3415615E+01  0.7546771E-02  0.2405189E+00
         22   -1    0    0    0    0  0.00000000000E+00  0.00000000000E+00  0.24680166968E+01  0.24680166968E+01  0.00000000000E+00 0. -1.
         22   -1    0    0    0    0 -0.00000000000E+00 -0.00000000000E+00 -0.47302049590E+01  0.47302049590E+01  0.00000000000E+00 0.  1.
          2    1    1    2  501    0  0.33673464718E+01 -0.57218429758E+00 -0.10380558972E+01  0.35698716615E+01  0.25500000000E-02 0.  1.
         -2    1    1    2    0  501 -0.33673464718E+01  0.57218429758E+00 -0.12241323650E+01  0.36283499943E+01  0.25500000000E-02 0. -1.
<mgrwt>
<rscale>  0 0.34156147E+01</rscale>
<asrwt>0</asrwt>
<pdfrwt beam="1">0</pdfrwt>
<pdfrwt beam="2">0</pdfrwt>
<totfact> 0.13720198E+12</totfact>
</mgrwt>
</event>
<event>
 4    1  0.3064748E+006  0.2661883E+01  0.7546771E-02  0.2641195E+00
         22   -1    0    0    0    0  0.00000000000E+00  0.00000000000E+00  0.82132016131E+01  0.82132016131E+01  0.00000000000E+00 0.  1.
         22   -1    0    0    0    0 -0.00000000000E+00 -0.00000000000E+00 -0.13564915152E+01  0.13564915152E+01  0.00000000000E+00 0. -1.
          2    1    1    2  501    0 -0.20387292030E+01  0.17114906872E+01  0.63152183597E+01  0.68532916594E+01  0.25500000000E-02 0.  1.
         -2    1    1    2    0  501  0.20387292030E+01 -0.17114906872E+01  0.54149173819E+00  0.27164014690E+01  0.25500000000E-02 0. -1.
<mgrwt>
<rscale>  0 0.26618835E+01</rscale>
<asrwt>0</asrwt>
<pdfrwt beam="1">0</pdfrwt>
<pdfrwt beam="2">0</pdfrwt>
<totfact> 0.14191977E+12</totfact>
</mgrwt>
</event>
<event>
 4    1  0.3064748E+006  0.2416486E+01  0.7546771E-02  0.2746534E+00
         22   -1    0    0    0    0  0.00000000000E+00  0.00000000000E+00  0.13417970069E+02  0.13417970069E+02  0.00000000000E+00 0. -1.
         22   -1    0    0    0    0 -0.00000000000E+00 -0.00000000000E+00 -0.10435925453E+01  0.10435925453E+01  0.00000000000E+00 0.  1.
          2    1    1    2  501    0  0.82508946884E+00 -0.22712604739E+01  0.11708144593E+02  0.11954917527E+02  0.25500000000E-02 0. -1.
         -2    1    1    2    0  501 -0.82508946884E+00  0.22712604739E+01  0.66623293082E+00  0.25066450871E+01  0.25500000000E-02 0.  1.
<mgrwt>
<rscale>  0 0.24164857E+01</rscale>
<asrwt>0</asrwt>
<pdfrwt beam="1">0</pdfrwt>
<pdfrwt beam="2">0</pdfrwt>
<totfact> 0.10564764E+12</totfact>
</mgrwt>
</event>
<event>
 4    1  0.3064748E+006  0.2050278E+01  0.7546771E-02  0.2947593E+00
         22   -1    0    0    0    0  0.00000000000E+00  0.00000000000E+00  0.37953467837E+01  0.37953467837E+01  0.00000000000E+00 0.  1.
         22   -1    0    0    0    0 -0.00000000000E+00 -0.00000000000E+00 -0.11086289954E+01  0.11086289954E+01  0.00000000000E+00 0. -1.
          2    1    1    2  501    0  0.74547173417E+00 -0.19099492382E+01  0.12678446384E+01  0.24106162550E+01  0.25500000000E-02 0.  1.
         -2    1    1    2    0  501 -0.74547173417E+00  0.19099492382E+01  0.14188731498E+01  0.24933595242E+01  0.25500000000E-02 0. -1.
<mgrwt>
<rscale>  0 0.20502782E+01</rscale>
<asrwt>0</asrwt>
<pdfrwt beam="1">0</pdfrwt>
<pdfrwt beam="2">0</pdfrwt>
<totfact> 0.44749366E+12</totfact>
</mgrwt>
</event>
<event>
 4    1  0.3064748E+006  0.3217380E+01  0.7546771E-02  0.2457650E+00
         22   -1    0    0    0    0  0.00000000000E+00  0.00000000000E+00  0.19937105797E+02  0.19937105797E+02  0.00000000000E+00 0.  1.
         22   -1    0    0    0    0 -0.00000000000E+00 -0.00000000000E+00 -0.13840751626E+01  0.13840751626E+01  0.00000000000E+00 0. -1.
          2    1    1    2  501    0  0.39666354881E+00  0.31928330951E+01  0.17703569556E+02  0.17993551808E+02  0.25500000000E-02 0.  1.
         -2    1    1    2    0  501 -0.39666354881E+00 -0.31928330951E+01  0.84946107845E+00  0.33276291516E+01  0.25500000000E-02 0. -1.
<mgrwt>
<rscale>  0 0.32173796E+01</rscale>
<asrwt>0</asrwt>
<pdfrwt beam="1">0</pdfrwt>
<pdfrwt beam="2">0</pdfrwt>
<totfact> 0.46870411E+11</totfact>
</mgrwt>
</event>
<event>
 4    1  0.3064748E+006  0.2370834E+01  0.7546771E-02  0.2768367E+00
         22   -1    0    0    0    0  0.00000000000E+00  0.00000000000E+00  0.19238718898E+01  0.19238718898E+01  0.00000000000E+00 0.  1.
         22   -1    0    0    0    0 -0.00000000000E+00 -0.00000000000E+00 -0.51318104454E+01  0.51318104454E+01  0.00000000000E+00 0. -1.
          2    1    1    2  501    0  0.23683232537E+01  0.10904857126E+00  0.71122270444E+00  0.24752153165E+01  0.25500000000E-02 0.  1.
         -2    1    1    2    0  501 -0.23683232537E+01 -0.10904857126E+00 -0.39191612600E+01  0.45804670187E+01  0.25500000000E-02 0. -1.
<mgrwt>
<rscale>  0 0.23708338E+01</rscale>
<asrwt>0</asrwt>
<pdfrwt beam="1">0</pdfrwt>
<pdfrwt beam="2">0</pdfrwt>
<totfact> 0.16630207E+12</totfact>
</mgrwt>
</event>
<event>
 4    1  0.3064748E+006  0.2232071E+01  0.7546771E-02  0.2839900E+00
         22   -1    0    0    0    0  0.00000000000E+00  0.00000000000E+00  0.11726566112E+02  0.11726566112E+02  0.00000000000E+00 0.  1.
         22   -1    0    0    0    0 -0.00000000000E+00 -0.00000000000E+00 -0.72162655121E+00  0.72162655121E+00  0.00000000000E+00 0. -1.
          2    1    1    2  501    0 -0.19492680696E+01  0.10874218801E+01  0.94938964415E+01  0.97527538929E+01  0.25500000000E-02 0. -1.
         -2    1    1    2    0  501  0.19492680696E+01 -0.10874218801E+01  0.15110431191E+01  0.26954387700E+01  0.25500000000E-02 0.  1.
<mgrwt>
<rscale>  0 0.22320705E+01</rscale>
<asrwt>0</asrwt>
<pdfrwt beam="1">0</pdfrwt>
<pdfrwt beam="2">0</pdfrwt>
<totfact> 0.18960265E+12</totfact>
</mgrwt>
</event>
<event>
 4    1  0.3064748E+006  0.2235763E+01  0.7546771E-02  0.2837887E+00
         22   -1    0    0    0    0  0.00000000000E+00  0.00000000000E+00  0.23544782242E+01  0.23544782242E+01  0.00000000000E+00 0.  1.
         22   -1    0    0    0    0 -0.00000000000E+00 -0.00000000000E+00 -0.39747041438E+01  0.39747041438E+01  0.00000000000E+00 0. -1.
          2    1    1    2  501    0 -0.82181920992E+00 -0.20792412974E+01  0.13498534823E+01  0.26116550524E+01  0.25500000000E-02 0.  1.
         -2    1    1    2    0  501  0.82181920992E+00  0.20792412974E+01 -0.29700794019E+01  0.37175273157E+01  0.25500000000E-02 0. -1.
<mgrwt>
<rscale>  0 0.22357633E+01</rscale>
<asrwt>0</asrwt>
<pdfrwt beam="1">0</pdfrwt>
<pdfrwt beam="2">0</pdfrwt>
<totfact> 0.17792346E+12</totfact>
</mgrwt>
</event>
<event>
 4    1  0.3064748E+006  0.2351499E+01  0.7546771E-02  0.2777855E+00
         22   -1    0    0    0    0  0.00000000000E+00  0.00000000000E+00  0.23371394735E+01  0.23371394735E+01  0.00000000000E+00 0.  1.
         22   -1    0    0    0    0 -0.00000000000E+00 -0.00000000000E+00 -0.33874570105E+01  0.33874570105E+01  0.00000000000E+00 0. -1.
          2    1    1    2  501    0  0.23475305736E+01 -0.13653090673E+00  0.10466489059E+01  0.25739115985E+01  0.25500000000E-02 0.  1.
         -2    1    1    2    0  501 -0.23475305736E+01  0.13653090673E+00 -0.20969664429E+01  0.31506848854E+01  0.25500000000E-02 0. -1.
<mgrwt>
<rscale>  0 0.23514989E+01</rscale>
<asrwt>0</asrwt>
<pdfrwt beam="1">0</pdfrwt>
<pdfrwt beam="2">0</pdfrwt>
<totfact> 0.21651522E+12</totfact>
</mgrwt>
</event>
<event>
 4    1  0.3064748E+006  0.2268945E+01  0.7546771E-02  0.2820080E+00
         22   -1    0    0    0    0  0.00000000000E+00  0.00000000000E+00  0.90397076105E+00  0.90397076105E+00  0.00000000000E+00 0. -1.
         22   -1    0    0    0    0 -0.00000000000E+00 -0.00000000000E+00 -0.68642651214E+01  0.68642651214E+01  0.00000000000E+00 0.  1.
          2    1    1    2  501    0 -0.82168007678E+00  0.21149345439E+01 -0.45832154841E+01  0.51140959074E+01  0.25500000000E-02 0.  1.
         -2    1    1    2    0  501  0.82168007678E+00 -0.21149345439E+01 -0.13770788763E+01  0.26541399751E+01  0.25500000000E-02 0. -1.
<mgrwt>
<rscale>  0 0.22689453E+01</rscale>
<asrwt>0</asrwt>
<pdfrwt beam="1">0</pdfrwt>
<pdfrwt beam="2">0</pdfrwt>
<totfact> 0.27996442E+12</totfact>
</mgrwt>
</event>
<event>
 4    1  0.3064748E+006  0.2089154E+01  0.7546771E-02  0.2923041E+00
         22   -1    0    0    0    0  0.00000000000E+00  0.00000000000E+00  0.33200311657E+01  0.33200311657E+01  0.00000000000E+00 0.  1.
         22   -1    0    0    0    0 -0.00000000000E+00 -0.00000000000E+00 -0.13240331705E+01  0.13240331705E+01  0.00000000000E+00 0. -1.
          2    1    1    2  501    0 -0.17354973805E+01 -0.11630154083E+01  0.11938401482E+01  0.24062038151E+01  0.25500000000E-02 0. -1.
         -2    1    1    2    0  501  0.17354973805E+01  0.11630154083E+01  0.80215784697E+00  0.22378605211E+01  0.25500000000E-02 0.  1.
<mgrwt>
<rscale>  0 0.20891535E+01</rscale>
<asrwt>0</asrwt>
<pdfrwt beam="1">0</pdfrwt>
<pdfrwt beam="2">0</pdfrwt>
<totfact> 0.42716263E+12</totfact>
</mgrwt>
</event>
<event>
 4    1  0.3064748E+006  0.6070427E+01  0.7546771E-02  0.2013429E+00
         22   -1    0    0    0    0  0.00000000000E+00  0.00000000000E+00  0.20649095338E+02  0.20649095338E+02  0.00000000000E+00 0.  1.
         22   -1    0    0    0    0 -0.00000000000E+00 -0.00000000000E+00 -0.17940440193E+01  0.17940440193E+01  0.00000000000E+00 0. -1.
          2    1    1    2  501    0 -0.44491524383E+01 -0.41297847045E+01  0.86127499393E+01  0.10537055905E+02  0.25500000000E-02 0. -1.
         -2    1    1    2    0  501  0.44491524383E+01  0.41297847045E+01  0.10242301379E+02  0.11906083452E+02  0.25500000000E-02 0.  1.
<mgrwt>
<rscale>  0 0.60704271E+01</rscale>
<asrwt>0</asrwt>
<pdfrwt beam="1">0</pdfrwt>
<pdfrwt beam="2">0</pdfrwt>
<totfact> 0.33274453E+11</totfact>
</mgrwt>
</event>
<event>
 4    1  0.3064748E+006  0.3345151E+01  0.7546771E-02  0.2423209E+00
         22   -1    0    0    0    0  0.00000000000E+00  0.00000000000E+00  0.15075454420E+01  0.15075454420E+01  0.00000000000E+00 0. -1.
         22   -1    0    0    0    0 -0.00000000000E+00 -0.00000000000E+00 -0.76927703775E+01  0.76927703775E+01  0.00000000000E+00 0.  1.
          2    1    1    2  501    0  0.58934993787E+00  0.32928248735E+01 -0.39545615123E+01  0.51796324439E+01  0.25500000000E-02 0. -1.
         -2    1    1    2    0  501 -0.58934993787E+00 -0.32928248735E+01 -0.22306634232E+01  0.40206833756E+01  0.25500000000E-02 0.  1.
<mgrwt>
<rscale>  0 0.33451510E+01</rscale>
<asrwt>0</asrwt>
<pdfrwt beam="1">0</pdfrwt>
<pdfrwt beam="2">0</pdfrwt>
<totfact> 0.13598387E+12</totfact>
</mgrwt>
</event>
<event>
 4    1  0.3064748E+006  0.4483116E+01  0.7546771E-02  0.2193477E+00
         22   -1    0    0    0    0  0.00000000000E+00  0.00000000000E+00  0.37718555469E+01  0.37718555469E+01  0.00000000000E+00 0. -1.
         22   -1    0    0    0    0 -0.00000000000E+00 -0.00000000000E+00 -0.61619897144E+01  0.61619897144E+01  0.00000000000E+00 0.  1.
          2    1    1    2  501    0  0.35356296610E+01 -0.27563823262E+01 -0.30218098185E+01  0.54064463106E+01  0.25500000000E-02 0.  1.
         -2    1    1    2    0  501 -0.35356296610E+01  0.27563823262E+01  0.63167565095E+00  0.45273989507E+01  0.25500000000E-02 0. -1.
<mgrwt>
<rscale>  0 0.44831158E+01</rscale>
<asrwt>0</asrwt>
<pdfrwt beam="1">0</pdfrwt>
<pdfrwt beam="2">0</pdfrwt>
<totfact> 0.61065084E+11</totfact>
</mgrwt>
</event>
<event>
 4    1  0.3064748E+006  0.3445350E+01  0.7546771E-02  0.2397778E+00
         22   -1    0    0    0    0  0.00000000000E+00  0.00000000000E+00  0.27499162812E+01  0.27499162812E+01  0.00000000000E+00 0. -1.
         22   -1    0    0    0    0 -0.00000000000E+00 -0.00000000000E+00 -0.44517119726E+01  0.44517119726E+01  0.00000000000E+00 0.  1.
          2    1    1    2  501    0 -0.34422690808E+01 -0.14563990150E+00 -0.14780879004E+01  0.37490235728E+01  0.25500000000E-02 0.  1.
         -2    1    1    2    0  501  0.34422690808E+01  0.14563990150E+00 -0.22370779097E+00  0.34526046811E+01  0.25500000000E-02 0. -1.
<mgrwt>
<rscale>  0 0.34453496E+01</rscale>
<asrwt>0</asrwt>
<pdfrwt beam="1">0</pdfrwt>
<pdfrwt beam="2">0</pdfrwt>
<totfact> 0.12995664E+12</totfact>
</mgrwt>
</event>
<event>
 4    1  0.3064748E+006  0.2347626E+01  0.7546771E-02  0.2779773E+00
         22   -1    0    0    0    0  0.00000000000E+00  0.00000000000E+00  0.41534932130E+01  0.41534932130E+01  0.00000000000E+00 0. -1.
         22   -1    0    0    0    0 -0.00000000000E+00 -0.00000000000E+00 -0.13497063399E+01  0.13497063399E+01  0.00000000000E+00 0.  1.
          2    1    1    2  501    0 -0.14157860997E+01 -0.18726695698E+01  0.17594252075E+01  0.29337561523E+01  0.25500000000E-02 0. -1.
         -2    1    1    2    0  501  0.14157860997E+01  0.18726695698E+01  0.10443616657E+01  0.25694434006E+01  0.25500000000E-02 0.  1.
<mgrwt>
<rscale>  0 0.23476261E+01</rscale>
<asrwt>0</asrwt>
<pdfrwt beam="1">0</pdfrwt>
<pdfrwt beam="2">0</pdfrwt>
<totfact> 0.32121533E+12</totfact>
</mgrwt>
</event>
<event>
 4    1  0.3064748E+006  0.2176757E+01  0.7546771E-02  0.2870831E+00
         22   -1    0    0    0    0  0.00000000000E+00  0.00000000000E+00  0.10404417121E+00  0.10404417121E+00  0.00000000000E+00 0.  1.
         22   -1    0    0    0    0 -0.00000000000E+00 -0.00000000000E+00 -0.48254213247E+02  0.48254213247E+02  0.00000000000E+00 0. -1.
          2    1    1    2  501    0 -0.21248055790E+01 -0.47272072759E+00 -0.18341592755E+02  0.18470308468E+02  0.25500000000E-02 0.  1.
         -2    1    1    2    0  501  0.21248055790E+01  0.47272072759E+00 -0.29808576321E+02  0.29887948950E+02  0.25500000000E-02 0. -1.
<mgrwt>
<rscale>  0 0.21767568E+01</rscale>
<asrwt>0</asrwt>
<pdfrwt beam="1">0</pdfrwt>
<pdfrwt beam="2">0</pdfrwt>
<totfact> 0.27899415E+12</totfact>
</mgrwt>
</event>
<event>
 4    1  0.3064748E+006  0.2051758E+01  0.7546771E-02  0.2946642E+00
         22   -1    0    0    0    0  0.00000000000E+00  0.00000000000E+00  0.42413093488E+00  0.42413093488E+00  0.00000000000E+00 0. -1.
         22   -1    0    0    0    0 -0.00000000000E+00 -0.00000000000E+00 -0.10684356263E+02  0.10684356263E+02  0.00000000000E+00 0.  1.
          2    1    1    2  501    0 -0.18759765918E+01 -0.83091255332E+00 -0.66103499708E+01  0.69214476147E+01  0.25500000000E-02 0. -1.
         -2    1    1    2    0  501  0.18759765918E+01  0.83091255332E+00 -0.36498753569E+01  0.41870395828E+01  0.25500000000E-02 0.  1.
<mgrwt>
<rscale>  0 0.20517579E+01</rscale>
<asrwt>0</asrwt>
<pdfrwt beam="1">0</pdfrwt>
<pdfrwt beam="2">0</pdfrwt>
<totfact> 0.38728510E+12</totfact>
</mgrwt>
</event>
<event>
 4    1  0.3064748E+006  0.3920518E+01  0.7546771E-02  0.2292750E+00
         22   -1    0    0    0    0  0.00000000000E+00  0.00000000000E+00  0.11928358766E+00  0.11928358766E+00  0.00000000000E+00 0. -1.
         22   -1    0    0    0    0 -0.00000000000E+00 -0.00000000000E+00 -0.12949008383E+03  0.12949008383E+03  0.00000000000E+00 0.  1.
          2    1    1    2  501    0  0.17807617993E+01  0.34927553945E+01 -0.60152165265E+02  0.60279793011E+02  0.25500000000E-02 0. -1.
         -2    1    1    2    0  501 -0.17807617993E+01 -0.34927553945E+01 -0.69218634973E+02  0.69329574403E+02  0.25500000000E-02 0.  1.
<mgrwt>
<rscale>  0 0.39205177E+01</rscale>
<asrwt>0</asrwt>
<pdfrwt beam="1">0</pdfrwt>
<pdfrwt beam="2">0</pdfrwt>
<totfact> 0.61609007E+11</totfact>
</mgrwt>
</event>
<event>
 4    1  0.3064748E+006  0.2062070E+01  0.7546771E-02  0.2940051E+00
         22   -1    0    0    0    0  0.00000000000E+00  0.00000000000E+00  0.38240048404E+02  0.38240048404E+02  0.00000000000E+00 0. -1.
         22   -1    0    0    0    0 -0.00000000000E+00 -0.00000000000E+00 -0.26190364836E+00  0.26190364836E+00  0.00000000000E+00 0.  1.
          2    1    1    2  501    0  0.20598435672E+01 -0.95759879982E-01  0.33592336622E+02  0.33655567321E+02  0.25500000000E-02 0. -1.
         -2    1    1    2    0  501 -0.20598435672E+01  0.95759879982E-01  0.43858081335E+01  0.48463847312E+01  0.25500000000E-02 0.  1.
<mgrwt>
<rscale>  0 0.20620698E+01</rscale>
<asrwt>0</asrwt>
<pdfrwt beam="1">0</pdfrwt>
<pdfrwt beam="2">0</pdfrwt>
<totfact> 0.13522451E+12</totfact>
</mgrwt>
</event>
<event>
 4    1  0.3064748E+006  0.2041102E+01  0.7546771E-02  0.2953522E+00
         22   -1    0    0    0    0  0.00000000000E+00  0.00000000000E+00  0.28656443707E+01  0.28656443707E+01  0.00000000000E+00 0. -1.
         22   -1    0    0    0    0 -0.00000000000E+00 -0.00000000000E+00 -0.20735006931E+01  0.20735006931E+01  0.00000000000E+00 0.  1.
          2    1    1    2  501    0  0.10753235510E+01  0.17348689395E+01  0.17461465033E+01  0.26860984885E+01  0.25500000000E-02 0.  1.
         -2    1    1    2    0  501 -0.10753235510E+01 -0.17348689395E+01 -0.95400282578E+00  0.22530465753E+01  0.25500000000E-02 0. -1.
<mgrwt>
<rscale>  0 0.20411020E+01</rscale>
<asrwt>0</asrwt>
<pdfrwt beam="1">0</pdfrwt>
<pdfrwt beam="2">0</pdfrwt>
<totfact> 0.30248298E+12</totfact>
</mgrwt>
</event>
<event>
 4    1  0.3064748E+006  0.3944483E+01  0.7546771E-02  0.2288034E+00
         22   -1    0    0    0    0  0.00000000000E+00  0.00000000000E+00  0.41721087792E+01  0.41721087792E+01  0.00000000000E+00 0. -1.
         22   -1    0    0    0    0 -0.00000000000E+00 -0.00000000000E+00 -0.38002836683E+01  0.38002836683E+01  0.00000000000E+00 0.  1.
          2    1    1    2  501    0 -0.39256514367E+01  0.38497174694E+00 -0.35896698117E+00  0.39607835392E+01  0.25500000000E-02 0.  1.
         -2    1    1    2    0  501  0.39256514367E+01 -0.38497174694E+00  0.73079209207E+00  0.40116089083E+01  0.25500000000E-02 0. -1.
<mgrwt>
<rscale>  0 0.39444834E+01</rscale>
<asrwt>0</asrwt>
<pdfrwt beam="1">0</pdfrwt>
<pdfrwt beam="2">0</pdfrwt>
<totfact> 0.96068945E+11</totfact>
</mgrwt>
</event>
<event>
 4    1  0.3064748E+006  0.3118203E+01  0.7546771E-02  0.2486097E+00
         22   -1    0    0    0    0  0.00000000000E+00  0.00000000000E+00  0.15749609449E+02  0.15749609449E+02  0.00000000000E+00 0.  1.
         22   -1    0    0    0    0 -0.00000000000E+00 -0.00000000000E+00 -0.85917936529E+00  0.85917936529E+00  0.00000000000E+00 0. -1.
          2    1    1    2  501    0  0.21250913618E+01  0.22819221844E+01  0.11850875568E+02  0.12254241730E+02  0.25500000000E-02 0.  1.
         -2    1    1    2    0  501 -0.21250913618E+01 -0.22819221844E+01  0.30395545159E+01  0.43545470843E+01  0.25500000000E-02 0. -1.
<mgrwt>
<rscale>  0 0.31182028E+01</rscale>
<asrwt>0</asrwt>
<pdfrwt beam="1">0</pdfrwt>
<pdfrwt beam="2">0</pdfrwt>
<totfact> 0.10831828E+12</totfact>
</mgrwt>
</event>
<event>
 4    1  0.3064748E+006  0.2477878E+01  0.7546771E-02  0.2718364E+00
         22   -1    0    0    0    0  0.00000000000E+00  0.00000000000E+00  0.17343967967E+01  0.17343967967E+01  0.00000000000E+00 0. -1.
         22   -1    0    0    0    0 -0.00000000000E+00 -0.00000000000E+00 -0.16493992852E+02  0.16493992852E+02  0.00000000000E+00 0.  1.
          2    1    1    2  501    0  0.12424478984E+01  0.21438743277E+01  0.69731414985E+00  0.25741265391E+01  0.25500000000E-02 0. -1.
         -2    1    1    2    0  501 -0.12424478984E+01 -0.21438743277E+01 -0.15456910206E+02  0.15654263110E+02  0.25500000000E-02 0.  1.
<mgrwt>
<rscale>  0 0.24778782E+01</rscale>
<asrwt>0</asrwt>
<pdfrwt beam="1">0</pdfrwt>
<pdfrwt beam="2">0</pdfrwt>
<totfact> 0.45736043E+11</totfact>
</mgrwt>
</event>
<event>
 4    1  0.3064748E+006  0.2737384E+01  0.7546771E-02  0.2612306E+00
         22   -1    0    0    0    0  0.00000000000E+00  0.00000000000E+00  0.60267818028E+01  0.60267818028E+01  0.00000000000E+00 0.  1.
         22   -1    0    0    0    0 -0.00000000000E+00 -0.00000000000E+00 -0.93104216543E+01  0.93104216543E+01  0.00000000000E+00 0. -1.
          2    1    1    2  501    0  0.27370457742E+01 -0.42945549436E-01  0.54964019104E+01  0.61403342217E+01  0.25500000000E-02 0.  1.
         -2    1    1    2    0  501 -0.27370457742E+01  0.42945549436E-01 -0.87800417620E+01  0.91968692355E+01  0.25500000000E-02 0. -1.
<mgrwt>
<rscale>  0 0.27373839E+01</rscale>
<asrwt>0</asrwt>
<pdfrwt beam="1">0</pdfrwt>
<pdfrwt beam="2">0</pdfrwt>
<totfact> 0.21385962E+11</totfact>
</mgrwt>
</event>
<event>
 4    1  0.3064748E+006  0.2115579E+01  0.7546771E-02  0.2906852E+00
         22   -1    0    0    0    0  0.00000000000E+00  0.00000000000E+00  0.38692419066E+01  0.38692419066E+01  0.00000000000E+00 0. -1.
         22   -1    0    0    0    0 -0.00000000000E+00 -0.00000000000E+00 -0.16982617208E+01  0.16982617208E+01  0.00000000000E+00 0.  1.
          2    1    1    2  501    0 -0.18680845798E+01 -0.99293945714E+00  0.26574425973E+01  0.33967155347E+01  0.25500000000E-02 0. -1.
         -2    1    1    2    0  501  0.18680845798E+01  0.99293945714E+00 -0.48646241158E+00  0.21707880927E+01  0.25500000000E-02 0.  1.
<mgrwt>
<rscale>  0 0.21155792E+01</rscale>
<asrwt>0</asrwt>
<pdfrwt beam="1">0</pdfrwt>
<pdfrwt beam="2">0</pdfrwt>
<totfact> 0.26803620E+12</totfact>
</mgrwt>
</event>
<event>
 4    1  0.3064748E+006  0.2496191E+01  0.7546771E-02  0.2710212E+00
         22   -1    0    0    0    0  0.00000000000E+00  0.00000000000E+00  0.18257428709E+01  0.18257428709E+01  0.00000000000E+00 0. -1.
         22   -1    0    0    0    0 -0.00000000000E+00 -0.00000000000E+00 -0.34676400546E+01  0.34676400546E+01  0.00000000000E+00 0.  1.
          2    1    1    2  501    0  0.11351796824E+01 -0.22231356143E+01 -0.11536618709E+01  0.27498921953E+01  0.25500000000E-02 0.  1.
         -2    1    1    2    0  501 -0.11351796824E+01  0.22231356143E+01 -0.48823531287E+00  0.25434907301E+01  0.25500000000E-02 0. -1.
<mgrwt>
<rscale>  0 0.24961914E+01</rscale>
<asrwt>0</asrwt>
<pdfrwt beam="1">0</pdfrwt>
<pdfrwt beam="2">0</pdfrwt>
<totfact> 0.28041808E+12</totfact>
</mgrwt>
</event>
<event>
 4    1  0.3064748E+006  0.2200389E+01  0.7546771E-02  0.2857434E+00
         22   -1    0    0    0    0  0.00000000000E+00  0.00000000000E+00  0.26177478381E+02  0.26177478381E+02  0.00000000000E+00 0. -1.
         22   -1    0    0    0    0 -0.00000000000E+00 -0.00000000000E+00 -0.25845357077E+00  0.25845357077E+00  0.00000000000E+00 0.  1.
          2    1    1    2  501    0  0.10952137218E+01 -0.19084581889E+01  0.20008169834E+02  0.20128799576E+02  0.25500000000E-02 0. -1.
         -2    1    1    2    0  501 -0.10952137218E+01  0.19084581889E+01  0.59108549766E+01  0.63071323763E+01  0.25500000000E-02 0.  1.
<mgrwt>
<rscale>  0 0.22003891E+01</rscale>
<asrwt>0</asrwt>
<pdfrwt beam="1">0</pdfrwt>
<pdfrwt beam="2">0</pdfrwt>
<totfact> 0.22283635E+12</totfact>
</mgrwt>
</event>
<event>
 4    1  0.3064748E+006  0.3860115E+01  0.7546771E-02  0.2304859E+00
         22   -1    0    0    0    0  0.00000000000E+00  0.00000000000E+00  0.35316719436E+00  0.35316719436E+00  0.00000000000E+00 0.  1.
         22   -1    0    0    0    0 -0.00000000000E+00 -0.00000000000E+00 -0.53217463442E+02  0.53217463442E+02  0.00000000000E+00 0. -1.
          2    1    1    2  501    0  0.35446273610E+01  0.15284294990E+01 -0.14239802027E+02  0.14753726585E+02  0.25500000000E-02 0.  1.
         -2    1    1    2    0  501 -0.35446273610E+01 -0.15284294990E+01 -0.38624494221E+02  0.38816904052E+02  0.25500000000E-02 0. -1.
<mgrwt>
<rscale>  0 0.38601148E+01</rscale>
<asrwt>0</asrwt>
<pdfrwt beam="1">0</pdfrwt>
<pdfrwt beam="2">0</pdfrwt>
<totfact> 0.62748158E+11</totfact>
</mgrwt>
</event>
<event>
 4    1  0.3064748E+006  0.2487853E+01  0.7546771E-02  0.2713910E+00
         22   -1    0    0    0    0  0.00000000000E+00  0.00000000000E+00  0.40050315615E+02  0.40050315615E+02  0.00000000000E+00 0.  1.
         22   -1    0    0    0    0 -0.00000000000E+00 -0.00000000000E+00 -0.18412255000E+00  0.18412255000E+00  0.00000000000E+00 0. -1.
          2    1    1    2  501    0 -0.17801008616E+01  0.17380005497E+01  0.27996635937E+02  0.28106957062E+02  0.25500000000E-02 0.  1.
         -2    1    1    2    0  501  0.17801008616E+01 -0.17380005497E+01  0.11869557127E+02  0.12127481102E+02  0.25500000000E-02 0. -1.
<mgrwt>
<rscale>  0 0.24878528E+01</rscale>
<asrwt>0</asrwt>
<pdfrwt beam="1">0</pdfrwt>
<pdfrwt beam="2">0</pdfrwt>
<totfact> 0.18878941E+12</totfact>
</mgrwt>
</event>
<event>
 4    1  0.3064748E+006  0.2284780E+01  0.7546771E-02  0.2811757E+00
         22   -1    0    0    0    0  0.00000000000E+00  0.00000000000E+00  0.58815101639E+01  0.58815101639E+01  0.00000000000E+00 0.  1.
         22   -1    0    0    0    0 -0.00000000000E+00 -0.00000000000E+00 -0.14736523804E+01  0.14736523804E+01  0.00000000000E+00 0. -1.
          2    1    1    2  501    0  0.22812141070E+01  0.12756661133E+00  0.45231718986E+01  0.50674748711E+01  0.25500000000E-02 0.  1.
         -2    1    1    2    0  501 -0.22812141070E+01 -0.12756661133E+00 -0.11531411520E+00  0.22876876732E+01  0.25500000000E-02 0. -1.
<mgrwt>
<rscale>  0 0.22847795E+01</rscale>
<asrwt>0</asrwt>
<pdfrwt beam="1">0</pdfrwt>
<pdfrwt beam="2">0</pdfrwt>
<totfact> 0.19236140E+12</totfact>
</mgrwt>
</event>
<event>
 4    1  0.3064748E+006  0.2705882E+01  0.7546771E-02  0.2624180E+00
         22   -1    0    0    0    0  0.00000000000E+00  0.00000000000E+00  0.53808041834E+02  0.53808041834E+02  0.00000000000E+00 0. -1.
         22   -1    0    0    0    0 -0.00000000000E+00 -0.00000000000E+00 -0.15426875010E+00  0.15426875010E+00  0.00000000000E+00 0.  1.
          2    1    1    2  501    0  0.26922846734E+01 -0.27091673320E+00  0.36093297158E+02  0.36194583834E+02  0.25500000000E-02 0.  1.
         -2    1    1    2    0  501 -0.26922846734E+01  0.27091673320E+00  0.17560475925E+02  0.17767726750E+02  0.25500000000E-02 0. -1.
<mgrwt>
<rscale>  0 0.27058823E+01</rscale>
<asrwt>0</asrwt>
<pdfrwt beam="1">0</pdfrwt>
<pdfrwt beam="2">0</pdfrwt>
<totfact> 0.15606132E+12</totfact>
</mgrwt>
</event>
<event>
 4    1  0.3064748E+006  0.3811695E+01  0.7546771E-02  0.2314802E+00
         22   -1    0    0    0    0  0.00000000000E+00  0.00000000000E+00  0.92376025409E+00  0.92376025409E+00  0.00000000000E+00 0.  1.
         22   -1    0    0    0    0 -0.00000000000E+00 -0.00000000000E+00 -0.40694865909E+02  0.40694865909E+02  0.00000000000E+00 0. -1.
          2    1    1    2  501    0  0.37805657336E+01 -0.48614386718E+00 -0.35862573243E+01  0.52335705999E+01  0.25500000000E-02 0.  1.
         -2    1    1    2    0  501 -0.37805657336E+01  0.48614386718E+00 -0.36184848331E+02  0.36385055563E+02  0.25500000000E-02 0. -1.
<mgrwt>
<rscale>  0 0.38116951E+01</rscale>
<asrwt>0</asrwt>
<pdfrwt beam="1">0</pdfrwt>
<pdfrwt beam="2">0</pdfrwt>
<totfact> 0.30053935E+11</totfact>
</mgrwt>
</event>
<event>
 4    1  0.3064748E+006  0.2140760E+01  0.7546771E-02  0.2891785E+00
         22   -1    0    0    0    0  0.00000000000E+00  0.00000000000E+00  0.13302339218E+02  0.13302339218E+02  0.00000000000E+00 0. -1.
         22   -1    0    0    0    0 -0.00000000000E+00 -0.00000000000E+00 -0.48628544049E+00  0.48628544049E+00  0.00000000000E+00 0.  1.
          2    1    1    2  501    0 -0.17541142666E+01  0.12271635389E+01  0.10130558194E+02  0.10354277523E+02  0.25500000000E-02 0. -1.
         -2    1    1    2    0  501  0.17541142666E+01 -0.12271635389E+01  0.26854955839E+01  0.34343471352E+01  0.25500000000E-02 0.  1.
<mgrwt>
<rscale>  0 0.21407601E+01</rscale>
<asrwt>0</asrwt>
<pdfrwt beam="1">0</pdfrwt>
<pdfrwt beam="2">0</pdfrwt>
<totfact> 0.25412000E+12</totfact>
</mgrwt>
</event>
<event>
 4    1  0.3064748E+006  0.2612795E+01  0.7546771E-02  0.2660798E+00
         22   -1    0    0    0    0  0.00000000000E+00  0.00000000000E+00  0.15334935500E+02  0.15334935500E+02  0.00000000000E+00 0. -1.
         22   -1    0    0    0    0 -0.00000000000E+00 -0.00000000000E+00 -0.53474827271E+00  0.53474827271E+00  0.00000000000E+00 0.  1.
          2    1    1    2  501    0 -0.20795646924E+01  0.15818039894E+01  0.10647656603E+02  0.10963543716E+02  0.25500000000E-02 0. -1.
         -2    1    1    2    0  501  0.20795646924E+01 -0.15818039894E+01  0.41525306249E+01  0.49061400575E+01  0.25500000000E-02 0.  1.
<mgrwt>
<rscale>  0 0.26127954E+01</rscale>
<asrwt>0</asrwt>
<pdfrwt beam="1">0</pdfrwt>
<pdfrwt beam="2">0</pdfrwt>
<totfact> 0.19170132E+12</totfact>
</mgrwt>
</event>
<event>
 4    1  0.3064748E+006  0.2402781E+01  0.7546771E-02  0.2753007E+00
         22   -1    0    0    0    0  0.00000000000E+00  0.00000000000E+00  0.80450508300E+01  0.80450508300E+01  0.00000000000E+00 0. -1.
         22   -1    0    0    0    0 -0.00000000000E+00 -0.00000000000E+00 -0.12177740342E+02  0.12177740342E+02  0.00000000000E+00 0.  1.
          2    1    1    2  501    0 -0.19316887856E+01  0.14289600935E+01  0.77425975743E+01  0.81068595777E+01  0.25500000000E-02 0. -1.
         -2    1    1    2    0  501  0.19316887856E+01 -0.14289600935E+01 -0.11875287087E+02  0.12115931595E+02  0.25500000000E-02 0.  1.
<mgrwt>
<rscale>  0 0.24027807E+01</rscale>
<asrwt>0</asrwt>
<pdfrwt beam="1">0</pdfrwt>
<pdfrwt beam="2">0</pdfrwt>
<totfact> 0.10928566E+11</totfact>
</mgrwt>
</event>
<event>
 4    1  0.3064748E+006  0.2931271E+01  0.7546771E-02  0.2544355E+00
         22   -1    0    0    0    0  0.00000000000E+00  0.00000000000E+00  0.48089297509E+02  0.48089297509E+02  0.00000000000E+00 0. -1.
         22   -1    0    0    0    0 -0.00000000000E+00 -0.00000000000E+00 -0.37670962872E+00  0.37670962872E+00  0.00000000000E+00 0.  1.
          2    1    1    2  501    0  0.29287384907E+01 -0.12178736867E+00  0.41426409757E+02  0.41529986433E+02  0.25500000000E-02 0. -1.
         -2    1    1    2    0  501 -0.29287384907E+01  0.12178736867E+00  0.62861781239E+01  0.69360207048E+01  0.25500000000E-02 0.  1.
<mgrwt>
<rscale>  0 0.29312707E+01</rscale>
<asrwt>0</asrwt>
<pdfrwt beam="1">0</pdfrwt>
<pdfrwt beam="2">0</pdfrwt>
<totfact> 0.66708679E+11</totfact>
</mgrwt>
</event>
<event>
 4    1  0.3064748E+006  0.2181121E+01  0.7546771E-02  0.2868336E+00
         22   -1    0    0    0    0  0.00000000000E+00  0.00000000000E+00  0.19895641177E+01  0.19895641177E+01  0.00000000000E+00 0. -1.
         22   -1    0    0    0    0 -0.00000000000E+00 -0.00000000000E+00 -0.33592171242E+01  0.33592171242E+01  0.00000000000E+00 0.  1.
          2    1    1    2  501    0 -0.21469248657E+01 -0.38470488237E+00  0.75087712224E+00  0.23067525183E+01  0.25500000000E-02 0. -1.
         -2    1    1    2    0  501  0.21469248657E+01  0.38470488237E+00 -0.21205301287E+01  0.30420287235E+01  0.25500000000E-02 0.  1.
<mgrwt>
<rscale>  0 0.21811214E+01</rscale>
<asrwt>0</asrwt>
<pdfrwt beam="1">0</pdfrwt>
<pdfrwt beam="2">0</pdfrwt>
<totfact> 0.26351511E+12</totfact>
</mgrwt>
</event>
<event>
 4    1  0.3064748E+006  0.2618635E+01  0.7546771E-02  0.2658431E+00
         22   -1    0    0    0    0  0.00000000000E+00  0.00000000000E+00  0.24383377043E+01  0.24383377043E+01  0.00000000000E+00 0.  1.
         22   -1    0    0    0    0 -0.00000000000E+00 -0.00000000000E+00 -0.28862376512E+01  0.28862376512E+01  0.00000000000E+00 0. -1.
          2    1    1    2  501    0 -0.26162068020E+01  0.11271447588E+00  0.20226409190E+00  0.26264348173E+01  0.25500000000E-02 0. -1.
         -2    1    1    2    0  501  0.26162068020E+01 -0.11271447588E+00 -0.65016403888E+00  0.26981405382E+01  0.25500000000E-02 0.  1.
<mgrwt>
<rscale>  0 0.26186350E+01</rscale>
<asrwt>0</asrwt>
<pdfrwt beam="1">0</pdfrwt>
<pdfrwt beam="2">0</pdfrwt>
<totfact> 0.24855816E+12</totfact>
</mgrwt>
</event>
<event>
 4    1  0.3064748E+006  0.2641326E+01  0.7546771E-02  0.2649323E+00
         22   -1    0    0    0    0  0.00000000000E+00  0.00000000000E+00  0.75925044036E+01  0.75925044036E+01  0.00000000000E+00 0.  1.
         22   -1    0    0    0    0 -0.00000000000E+00 -0.00000000000E+00 -0.35739998737E+01  0.35739998737E+01  0.00000000000E+00 0. -1.
          2    1    1    2  501    0 -0.16227320943E+01  0.20840678628E+01  0.68215445165E+01  0.73150580586E+01  0.25500000000E-02 0.  1.
         -2    1    1    2    0  501  0.16227320943E+01 -0.20840678628E+01 -0.28030399866E+01  0.38514462188E+01  0.25500000000E-02 0. -1.
<mgrwt>
<rscale>  0 0.26413263E+01</rscale>
<asrwt>0</asrwt>
<pdfrwt beam="1">0</pdfrwt>
<pdfrwt beam="2">0</pdfrwt>
<totfact> 0.50686131E+11</totfact>
</mgrwt>
</event>
<event>
 4    1  0.3064748E+006  0.2235150E+01  0.7546771E-02  0.2838221E+00
         22   -1    0    0    0    0  0.00000000000E+00  0.00000000000E+00  0.70207442821E+00  0.70207442821E+00  0.00000000000E+00 0.  1.
         22   -1    0    0    0    0 -0.00000000000E+00 -0.00000000000E+00 -0.73443913582E+01  0.73443913582E+01  0.00000000000E+00 0. -1.
          2    1    1    2  501    0  0.16728771368E+01 -0.14823534962E+01 -0.26115389510E+01  0.34374455629E+01  0.25500000000E-02 0.  1.
         -2    1    1    2    0  501 -0.16728771368E+01  0.14823534962E+01 -0.40307779790E+01  0.46090202236E+01  0.25500000000E-02 0. -1.
<mgrwt>
<rscale>  0 0.22351502E+01</rscale>
<asrwt>0</asrwt>
<pdfrwt beam="1">0</pdfrwt>
<pdfrwt beam="2">0</pdfrwt>
<totfact> 0.34421660E+12</totfact>
</mgrwt>
</event>
<event>
 4    1  0.3064748E+006  0.2258571E+01  0.7546771E-02  0.2825594E+00
         22   -1    0    0    0    0  0.00000000000E+00  0.00000000000E+00  0.49002629275E+00  0.49002629275E+00  0.00000000000E+00 0.  1.
         22   -1    0    0    0    0 -0.00000000000E+00 -0.00000000000E+00 -0.13174363832E+02  0.13174363832E+02  0.00000000000E+00 0. -1.
          2    1    1    2  501    0 -0.13986758770E+01  0.17733702518E+01 -0.32125027655E+01  0.39269984441E+01  0.25500000000E-02 0.  1.
         -2    1    1    2    0  501  0.13986758770E+01 -0.17733702518E+01 -0.94718347735E+01  0.97373916804E+01  0.25500000000E-02 0. -1.
<mgrwt>
<rscale>  0 0.22585710E+01</rscale>
<asrwt>0</asrwt>
<pdfrwt beam="1">0</pdfrwt>
<pdfrwt beam="2">0</pdfrwt>
<totfact> 0.25493673E+12</totfact>
</mgrwt>
</event>
<event>
 4    1  0.3064748E+006  0.2713079E+01  0.7546771E-02  0.2621445E+00
         22   -1    0    0    0    0  0.00000000000E+00  0.00000000000E+00  0.64384266465E+01  0.64384266465E+01  0.00000000000E+00 0.  1.
         22   -1    0    0    0    0 -0.00000000000E+00 -0.00000000000E+00 -0.37118647429E+01  0.37118647429E+01  0.00000000000E+00 0. -1.
          2    1    1    2  501    0  0.43995796090E+00 -0.26771683757E+01  0.55851137126E+01  0.62092105138E+01  0.25500000000E-02 0.  1.
         -2    1    1    2    0  501 -0.43995796090E+00  0.26771683757E+01 -0.28585518091E+01  0.39410808755E+01  0.25500000000E-02 0. -1.
<mgrwt>
<rscale>  0 0.27130794E+01</rscale>
<asrwt>0</asrwt>
<pdfrwt beam="1">0</pdfrwt>
<pdfrwt beam="2">0</pdfrwt>
<totfact> 0.59053198E+11</totfact>
</mgrwt>
</event>
<event>
 4    1  0.3064748E+006  0.2244560E+01  0.7546771E-02  0.2833117E+00
         22   -1    0    0    0    0  0.00000000000E+00  0.00000000000E+00  0.34333270666E+01  0.34333270666E+01  0.00000000000E+00 0. -1.
         22   -1    0    0    0    0 -0.00000000000E+00 -0.00000000000E+00 -0.17343448987E+01  0.17343448987E+01  0.00000000000E+00 0.  1.
          2    1    1    2  501    0  0.22192465383E+01 -0.33613826075E+00  0.18631952269E+01  0.29171127994E+01  0.25500000000E-02 0. -1.
         -2    1    1    2    0  501 -0.22192465383E+01  0.33613826075E+00 -0.16421305894E+00  0.22505591660E+01  0.25500000000E-02 0.  1.
<mgrwt>
<rscale>  0 0.22445602E+01</rscale>
<asrwt>0</asrwt>
<pdfrwt beam="1">0</pdfrwt>
<pdfrwt beam="2">0</pdfrwt>
<totfact> 0.30102911E+12</totfact>
</mgrwt>
</event>
<event>
 4    1  0.3064748E+006  0.2406348E+01  0.7546771E-02  0.2751315E+00
         22   -1    0    0    0    0  0.00000000000E+00  0.00000000000E+00  0.40704732744E+01  0.40704732744E+01  0.00000000000E+00 0. -1.
         22   -1    0    0    0    0 -0.00000000000E+00 -0.00000000000E+00 -0.16395484185E+01  0.16395484185E+01  0.00000000000E+00 0.  1.
          2    1    1    2  501    0  0.10832992684E+01 -0.21487130646E+01  0.22540884537E+01  0.32971846170E+01  0.25500000000E-02 0. -1.
         -2    1    1    2    0  501 -0.10832992684E+01  0.21487130646E+01  0.17683640219E+00  0.24128370758E+01  0.25500000000E-02 0.  1.
<mgrwt>
<rscale>  0 0.24063482E+01</rscale>
<asrwt>0</asrwt>
<pdfrwt beam="1">0</pdfrwt>
<pdfrwt beam="2">0</pdfrwt>
<totfact> 0.26298391E+12</totfact>
</mgrwt>
</event>
<event>
 4    1  0.3064748E+006  0.2753150E+01  0.7546771E-02  0.2606456E+00
         22   -1    0    0    0    0  0.00000000000E+00  0.00000000000E+00  0.70696436734E+01  0.70696436734E+01  0.00000000000E+00 0.  1.
         22   -1    0    0    0    0 -0.00000000000E+00 -0.00000000000E+00 -0.11454894500E+01  0.11454894500E+01  0.00000000000E+00 0. -1.
          2    1    1    2  501    0 -0.10655168265E+01 -0.25386020232E+01  0.40013030534E+01  0.48569804372E+01  0.25500000000E-02 0. -1.
         -2    1    1    2    0  501  0.10655168265E+01  0.25386020232E+01  0.19228511699E+01  0.33581526862E+01  0.25500000000E-02 0.  1.
<mgrwt>
<rscale>  0 0.27531496E+01</rscale>
<asrwt>0</asrwt>
<pdfrwt beam="1">0</pdfrwt>
<pdfrwt beam="2">0</pdfrwt>
<totfact> 0.20622211E+12</totfact>
</mgrwt>
</event>
<event>
 4    1  0.3064748E+006  0.3961470E+01  0.7546771E-02  0.2284721E+00
         22   -1    0    0    0    0  0.00000000000E+00  0.00000000000E+00  0.15708703535E+02  0.15708703535E+02  0.00000000000E+00 0.  1.
         22   -1    0    0    0    0 -0.00000000000E+00 -0.00000000000E+00 -0.40058706462E+01  0.40058706462E+01  0.00000000000E+00 0. -1.
          2    1    1    2  501    0 -0.33614348591E+01 -0.20961850756E+01  0.14391560137E+02  0.14926829733E+02  0.25500000000E-02 0.  1.
         -2    1    1    2    0  501  0.33614348591E+01  0.20961850756E+01 -0.26887272485E+01  0.47877444483E+01  0.25500000000E-02 0. -1.
<mgrwt>
<rscale>  0 0.39614698E+01</rscale>
<asrwt>0</asrwt>
<pdfrwt beam="1">0</pdfrwt>
<pdfrwt beam="2">0</pdfrwt>
<totfact> 0.18320587E+11</totfact>
</mgrwt>
</event>
<event>
 4    1  0.3064748E+006  0.3002383E+01  0.7546771E-02  0.2521428E+00
         22   -1    0    0    0    0  0.00000000000E+00  0.00000000000E+00  0.34485561785E+01  0.34485561785E+01  0.00000000000E+00 0. -1.
         22   -1    0    0    0    0 -0.00000000000E+00 -0.00000000000E+00 -0.26572844166E+01  0.26572844166E+01  0.00000000000E+00 0.  1.
          2    1    1    2  501    0 -0.63349189357E+00  0.29347882896E+01  0.78556834385E+00  0.31034526595E+01  0.25500000000E-02 0. -1.
         -2    1    1    2    0  501  0.63349189357E+00 -0.29347882896E+01  0.57034180405E-02  0.30023879356E+01  0.25500000000E-02 0.  1.
<mgrwt>
<rscale>  0 0.30023825E+01</rscale>
<asrwt>0</asrwt>
<pdfrwt beam="1">0</pdfrwt>
<pdfrwt beam="2">0</pdfrwt>
<totfact> 0.18262408E+12</totfact>
</mgrwt>
</event>
<event>
 4    1  0.3064748E+006  0.2608180E+01  0.7546771E-02  0.2662676E+00
         22   -1    0    0    0    0  0.00000000000E+00  0.00000000000E+00  0.25932826153E+02  0.25932826153E+02  0.00000000000E+00 0.  1.
         22   -1    0    0    0    0 -0.00000000000E+00 -0.00000000000E+00 -0.98035561889E+00  0.98035561889E+00  0.00000000000E+00 0. -1.
          2    1    1    2  501    0  0.17383645320E+01 -0.19443990110E+01  0.23992650482E+02  0.24133998475E+02  0.25500000000E-02 0.  1.
         -2    1    1    2    0  501 -0.17383645320E+01  0.19443990110E+01  0.95982005216E+00  0.27791832965E+01  0.25500000000E-02 0. -1.
<mgrwt>
<rscale>  0 0.26081805E+01</rscale>
<asrwt>0</asrwt>
<pdfrwt beam="1">0</pdfrwt>
<pdfrwt beam="2">0</pdfrwt>
<totfact> 0.50012815E+11</totfact>
</mgrwt>
</event>
<event>
 4    1  0.3064748E+006  0.2502557E+01  0.7546771E-02  0.2707404E+00
         22   -1    0    0    0    0  0.00000000000E+00  0.00000000000E+00  0.37423536480E+00  0.37423536480E+00  0.00000000000E+00 0. -1.
         22   -1    0    0    0    0 -0.00000000000E+00 -0.00000000000E+00 -0.33561844805E+02  0.33561844805E+02  0.00000000000E+00 0.  1.
          2    1    1    2  501    0  0.24648346619E+01  0.43286655026E+00 -0.45791454934E+01  0.52183678783E+01  0.25500000000E-02 0. -1.
         -2    1    1    2    0  501 -0.24648346619E+01 -0.43286655026E+00 -0.28608463947E+02  0.28717712292E+02  0.25500000000E-02 0.  1.
<mgrwt>
<rscale>  0 0.25025567E+01</rscale>
<asrwt>0</asrwt>
<pdfrwt beam="1">0</pdfrwt>
<pdfrwt beam="2">0</pdfrwt>
<totfact> 0.10720583E+12</totfact>
</mgrwt>
</event>
<event>
 4    1  0.3064748E+006  0.2526856E+01  0.7546771E-02  0.2696807E+00
         22   -1    0    0    0    0  0.00000000000E+00  0.00000000000E+00  0.27220198162E+01  0.27220198162E+01  0.00000000000E+00 0.  1.
         22   -1    0    0    0    0 -0.00000000000E+00 -0.00000000000E+00 -0.23695197243E+01  0.23695197243E+01  0.00000000000E+00 0. -1.
          2    1    1    2  501    0  0.16011535331E+01  0.19548153857E+01  0.43157293371E+00  0.25634464162E+01  0.25500000000E-02 0.  1.
         -2    1    1    2    0  501 -0.16011535331E+01 -0.19548153857E+01 -0.79072841823E-01  0.25280931244E+01  0.25500000000E-02 0. -1.
<mgrwt>
<rscale>  0 0.25268562E+01</rscale>
<asrwt>0</asrwt>
<pdfrwt beam="1">0</pdfrwt>
<pdfrwt beam="2">0</pdfrwt>
<totfact> 0.27513544E+12</totfact>
</mgrwt>
</event>
<event>
 4    1  0.3064748E+006  0.2398187E+01  0.7546771E-02  0.2755192E+00
         22   -1    0    0    0    0  0.00000000000E+00  0.00000000000E+00  0.69726512461E+00  0.69726512461E+00  0.00000000000E+00 0.  1.
         22   -1    0    0    0    0 -0.00000000000E+00 -0.00000000000E+00 -0.83757650096E+01  0.83757650096E+01  0.00000000000E+00 0. -1.
          2    1    1    2  501    0 -0.19455639661E+01 -0.14021678498E+01 -0.32797663923E+01  0.40630244788E+01  0.25500000000E-02 0.  1.
         -2    1    1    2    0  501  0.19455639661E+01  0.14021678498E+01 -0.43987334927E+01  0.50100056554E+01  0.25500000000E-02 0. -1.
<mgrwt>
<rscale>  0 0.23981869E+01</rscale>
<asrwt>0</asrwt>
<pdfrwt beam="1">0</pdfrwt>
<pdfrwt beam="2">0</pdfrwt>
<totfact> 0.29628640E+12</totfact>
</mgrwt>
</event>
<event>
 4    1  0.3064748E+006  0.2101576E+01  0.7546771E-02  0.2915381E+00
         22   -1    0    0    0    0  0.00000000000E+00  0.00000000000E+00  0.45718656135E+01  0.45718656135E+01  0.00000000000E+00 0. -1.
         22   -1    0    0    0    0 -0.00000000000E+00 -0.00000000000E+00 -0.11591475381E+01  0.11591475381E+01  0.00000000000E+00 0.  1.
          2    1    1    2  501    0  0.15725477939E+01  0.13941699241E+01  0.28759319183E+01  0.35619667661E+01  0.25500000000E-02 0.  1.
         -2    1    1    2    0  501 -0.15725477939E+01 -0.13941699241E+01  0.53678615713E+00  0.21690463855E+01  0.25500000000E-02 0. -1.
<mgrwt>
<rscale>  0 0.21015763E+01</rscale>
<asrwt>0</asrwt>
<pdfrwt beam="1">0</pdfrwt>
<pdfrwt beam="2">0</pdfrwt>
<totfact> 0.34151404E+12</totfact>
</mgrwt>
</event>
<event>
 4    1  0.3064748E+006  0.2150277E+01  0.7546771E-02  0.2886180E+00
         22   -1    0    0    0    0  0.00000000000E+00  0.00000000000E+00  0.12427325921E+01  0.12427325921E+01  0.00000000000E+00 0.  1.
         22   -1    0    0    0    0 -0.00000000000E+00 -0.00000000000E+00 -0.39507012800E+02  0.39507012800E+02  0.00000000000E+00 0. -1.
          2    1    1    2  501    0 -0.20899147302E+01 -0.50590463957E+00  0.25960951258E+00  0.21658916606E+01  0.25500000000E-02 0.  1.
         -2    1    1    2    0  501  0.20899147302E+01  0.50590463957E+00 -0.38523889720E+02  0.38583853731E+02  0.25500000000E-02 0. -1.
<mgrwt>
<rscale>  0 0.21502766E+01</rscale>
<asrwt>0</asrwt>
<pdfrwt beam="1">0</pdfrwt>
<pdfrwt beam="2">0</pdfrwt>
<totfact> 0.22246823E+11</totfact>
</mgrwt>
</event>
<event>
 4    1  0.3064748E+006  0.4621045E+01  0.7546771E-02  0.2172278E+00
         22   -1    0    0    0    0  0.00000000000E+00  0.00000000000E+00  0.83058399460E+01  0.83058399460E+01  0.00000000000E+00 0. -1.
         22   -1    0    0    0    0 -0.00000000000E+00 -0.00000000000E+00 -0.30727334597E+01  0.30727334597E+01  0.00000000000E+00 0.  1.
          2    1    1    2  501    0 -0.42531467471E+01 -0.18068739351E+01  0.49155868278E+01  0.67466325699E+01  0.25500000000E-02 0. -1.
         -2    1    1    2    0  501  0.42531467471E+01  0.18068739351E+01  0.31751965855E+00  0.46319408357E+01  0.25500000000E-02 0.  1.
<mgrwt>
<rscale>  0 0.46210450E+01</rscale>
<asrwt>0</asrwt>
<pdfrwt beam="1">0</pdfrwt>
<pdfrwt beam="2">0</pdfrwt>
<totfact> 0.54314123E+11</totfact>
</mgrwt>
</event>
<event>
 4    1  0.3064748E+006  0.3696407E+01  0.7546771E-02  0.2339377E+00
         22   -1    0    0    0    0  0.00000000000E+00  0.00000000000E+00  0.34807451059E+01  0.34807451059E+01  0.00000000000E+00 0.  1.
         22   -1    0    0    0    0 -0.00000000000E+00 -0.00000000000E+00 -0.41412664408E+01  0.41412664408E+01  0.00000000000E+00 0. -1.
          2    1    1    2  501    0 -0.25741066426E+01 -0.26528091881E+01  0.53976773216E+00  0.37356093617E+01  0.25500000000E-02 0.  1.
         -2    1    1    2    0  501  0.25741066426E+01  0.26528091881E+01 -0.12002890671E+01  0.38864021850E+01  0.25500000000E-02 0. -1.
<mgrwt>
<rscale>  0 0.36964075E+01</rscale>
<asrwt>0</asrwt>
<pdfrwt beam="1">0</pdfrwt>
<pdfrwt beam="2">0</pdfrwt>
<totfact> 0.10743669E+12</totfact>
</mgrwt>
</event>
<event>
 4    1  0.3064748E+006  0.2712092E+01  0.7546771E-02  0.2621819E+00
         22   -1    0    0    0    0  0.00000000000E+00  0.00000000000E+00  0.50737070205E+01  0.50737070205E+01  0.00000000000E+00 0. -1.
         22   -1    0    0    0    0 -0.00000000000E+00 -0.00000000000E+00 -0.14498960155E+01  0.14498960155E+01  0.00000000000E+00 0.  1.
          2    1    1    2  501    0  0.22709961889E+01  0.14825695082E+01  0.18480850855E+01  0.32818989963E+01  0.25500000000E-02 0.  1.
         -2    1    1    2    0  501 -0.22709961889E+01 -0.14825695082E+01  0.17757259196E+01  0.32417040396E+01  0.25500000000E-02 0. -1.
<mgrwt>
<rscale>  0 0.27120919E+01</rscale>
<asrwt>0</asrwt>
<pdfrwt beam="1">0</pdfrwt>
<pdfrwt beam="2">0</pdfrwt>
<totfact> 0.23356994E+12</totfact>
</mgrwt>
</event>
<event>
 4    1  0.3064748E+006  0.2723824E+01  0.7546771E-02  0.2617386E+00
         22   -1    0    0    0    0  0.00000000000E+00  0.00000000000E+00  0.91486853673E+00  0.91486853673E+00  0.00000000000E+00 0.  1.
         22   -1    0    0    0    0 -0.00000000000E+00 -0.00000000000E+00 -0.20427260775E+02  0.20427260775E+02  0.00000000000E+00 0. -1.
          2    1    1    2  501    0 -0.21689448479E+01 -0.16476919804E+01 -0.14697784581E+01  0.30950712163E+01  0.25500000000E-02 0.  1.
         -2    1    1    2    0  501  0.21689448479E+01  0.16476919804E+01 -0.18042613780E+02  0.18247058095E+02  0.25500000000E-02 0. -1.
<mgrwt>
<rscale>  0 0.27238240E+01</rscale>
<asrwt>0</asrwt>
<pdfrwt beam="1">0</pdfrwt>
<pdfrwt beam="2">0</pdfrwt>
<totfact> 0.73030122E+11</totfact>
</mgrwt>
</event>
<event>
 4    1  0.3064748E+006  0.2958661E+01  0.7546771E-02  0.2535407E+00
         22   -1    0    0    0    0  0.00000000000E+00  0.00000000000E+00  0.11168777366E+01  0.11168777366E+01  0.00000000000E+00 0.  1.
         22   -1    0    0    0    0 -0.00000000000E+00 -0.00000000000E+00 -0.78849534108E+01  0.78849534108E+01  0.00000000000E+00 0. -1.
          2    1    1    2  501    0  0.23696769141E+01  0.17715250383E+01 -0.37327221357E+01  0.47630757588E+01  0.25500000000E-02 0.  1.
         -2    1    1    2    0  501 -0.23696769141E+01 -0.17715250383E+01 -0.30353535385E+01  0.42387553887E+01  0.25500000000E-02 0. -1.
<mgrwt>
<rscale>  0 0.29586612E+01</rscale>
<asrwt>0</asrwt>
<pdfrwt beam="1">0</pdfrwt>
<pdfrwt beam="2">0</pdfrwt>
<totfact> 0.18624814E+12</totfact>
</mgrwt>
</event>
<event>
 4    1  0.3064748E+006  0.4079580E+01  0.7546771E-02  0.2262336E+00
         22   -1    0    0    0    0  0.00000000000E+00  0.00000000000E+00  0.21438073552E+01  0.21438073552E+01  0.00000000000E+00 0.  1.
         22   -1    0    0    0    0 -0.00000000000E+00 -0.00000000000E+00 -0.13375585668E+02  0.13375585668E+02  0.00000000000E+00 0. -1.
          2    1    1    2  501    0 -0.38667941919E+01 -0.13003337789E+01 -0.58946561449E+00  0.41219463209E+01  0.25500000000E-02 0.  1.
         -2    1    1    2    0  501  0.38667941919E+01  0.13003337789E+01 -0.10642312699E+02  0.11397446703E+02  0.25500000000E-02 0. -1.
<mgrwt>
<rscale>  0 0.40795799E+01</rscale>
<asrwt>0</asrwt>
<pdfrwt beam="1">0</pdfrwt>
<pdfrwt beam="2">0</pdfrwt>
<totfact> 0.46321666E+11</totfact>
</mgrwt>
</event>
<event>
 4    1  0.3064748E+006  0.2227438E+01  0.7546771E-02  0.2842434E+00
         22   -1    0    0    0    0  0.00000000000E+00  0.00000000000E+00  0.10450521971E+01  0.10450521971E+01  0.00000000000E+00 0. -1.
         22   -1    0    0    0    0 -0.00000000000E+00 -0.00000000000E+00 -0.73001906757E+01  0.73001906757E+01  0.00000000000E+00 0.  1.
          2    1    1    2  501    0  0.22105429124E+01  0.27381154760E+00 -0.66020461789E+00  0.23232196132E+01  0.25500000000E-02 0. -1.
         -2    1    1    2    0  501 -0.22105429124E+01 -0.27381154760E+00 -0.55949338607E+01  0.60220232596E+01  0.25500000000E-02 0.  1.
<mgrwt>
<rscale>  0 0.22274378E+01</rscale>
<asrwt>0</asrwt>
<pdfrwt beam="1">0</pdfrwt>
<pdfrwt beam="2">0</pdfrwt>
<totfact> 0.22040109E+12</totfact>
</mgrwt>
</event>
<event>
 4    1  0.3064748E+006  0.2125182E+01  0.7546771E-02  0.2901065E+00
         22   -1    0    0    0    0  0.00000000000E+00  0.00000000000E+00  0.97568444932E+00  0.97568444932E+00  0.00000000000E+00 0.  1.
         22   -1    0    0    0    0 -0.00000000000E+00 -0.00000000000E+00 -0.46594014914E+01  0.46594014914E+01  0.00000000000E+00 0. -1.
          2    1    1    2  501    0  0.17213698913E+01 -0.12463051635E+01 -0.16140924391E+01  0.26686498024E+01  0.25500000000E-02 0. -1.
         -2    1    1    2    0  501 -0.17213698913E+01  0.12463051635E+01 -0.20696246030E+01  0.29664361384E+01  0.25500000000E-02 0.  1.
<mgrwt>
<rscale>  0 0.21251817E+01</rscale>
<asrwt>0</asrwt>
<pdfrwt beam="1">0</pdfrwt>
<pdfrwt beam="2">0</pdfrwt>
<totfact> 0.40665621E+12</totfact>
</mgrwt>
</event>
<event>
 4    1  0.3064748E+006  0.2413590E+01  0.7546771E-02  0.2747896E+00
         22   -1    0    0    0    0  0.00000000000E+00  0.00000000000E+00  0.23321562416E+01  0.23321562416E+01  0.00000000000E+00 0. -1.
         22   -1    0    0    0    0 -0.00000000000E+00 -0.00000000000E+00 -0.25288370121E+01  0.25288370121E+01  0.00000000000E+00 0.  1.
          2    1    1    2  501    0 -0.91283916181E+00 -0.22343081956E+01  0.17063267844E+00  0.24196137009E+01  0.25500000000E-02 0. -1.
         -2    1    1    2    0  501  0.91283916181E+00  0.22343081956E+01 -0.36731344900E+00  0.24413795528E+01  0.25500000000E-02 0.  1.
<mgrwt>
<rscale>  0 0.24135896E+01</rscale>
<asrwt>0</asrwt>
<pdfrwt beam="1">0</pdfrwt>
<pdfrwt beam="2">0</pdfrwt>
<totfact> 0.30534402E+12</totfact>
</mgrwt>
</event>
<event>
 4    1  0.3064748E+006  0.2240740E+01  0.7546771E-02  0.2835184E+00
         22   -1    0    0    0    0  0.00000000000E+00  0.00000000000E+00  0.89748776055E+01  0.89748776055E+01  0.00000000000E+00 0.  1.
         22   -1    0    0    0    0 -0.00000000000E+00 -0.00000000000E+00 -0.61878902574E+00  0.61878902574E+00  0.00000000000E+00 0. -1.
          2    1    1    2  501    0 -0.22264513008E+01 -0.25263290218E+00  0.56635904362E+01  0.60907447747E+01  0.25500000000E-02 0. -1.
         -2    1    1    2    0  501  0.22264513008E+01  0.25263290218E+00  0.26924981436E+01  0.35029218566E+01  0.25500000000E-02 0.  1.
<mgrwt>
<rscale>  0 0.22407399E+01</rscale>
<asrwt>0</asrwt>
<pdfrwt beam="1">0</pdfrwt>
<pdfrwt beam="2">0</pdfrwt>
<totfact> 0.31214563E+12</totfact>
</mgrwt>
</event>
<event>
 4    1  0.3064748E+006  0.3577900E+01  0.7546771E-02  0.2366057E+00
         22   -1    0    0    0    0  0.00000000000E+00  0.00000000000E+00  0.10916454395E+01  0.10916454395E+01  0.00000000000E+00 0. -1.
         22   -1    0    0    0    0 -0.00000000000E+00 -0.00000000000E+00 -0.12731002745E+02  0.12731002745E+02  0.00000000000E+00 0.  1.
          2    1    1    2  501    0 -0.77543531189E+00  0.34928590145E+01 -0.77608677098E+01  0.85459018324E+01  0.25500000000E-02 0.  1.
         -2    1    1    2    0  501  0.77543531189E+00 -0.34928590145E+01 -0.38784895958E+01  0.52767463522E+01  0.25500000000E-02 0. -1.
<mgrwt>
<rscale>  0 0.35779003E+01</rscale>
<asrwt>0</asrwt>
<pdfrwt beam="1">0</pdfrwt>
<pdfrwt beam="2">0</pdfrwt>
<totfact> 0.10701625E+12</totfact>
</mgrwt>
</event>
<event>
 4    1  0.3064748E+006  0.2202592E+01  0.7546771E-02  0.2856199E+00
         22   -1    0    0    0    0  0.00000000000E+00  0.00000000000E+00  0.17510651113E+01  0.17510651113E+01  0.00000000000E+00 0.  1.
         22   -1    0    0    0    0 -0.00000000000E+00 -0.00000000000E+00 -0.31131262455E+01  0.31131262455E+01  0.00000000000E+00 0. -1.
          2    1    1    2  501    0 -0.65221725733E+00  0.21038100227E+01  0.12576218998E+00  0.22061791843E+01  0.25500000000E-02 0.  1.
         -2    1    1    2    0  501  0.65221725733E+00 -0.21038100227E+01 -0.14878233242E+01  0.26580121725E+01  0.25500000000E-02 0. -1.
<mgrwt>
<rscale>  0 0.22025918E+01</rscale>
<asrwt>0</asrwt>
<pdfrwt beam="1">0</pdfrwt>
<pdfrwt beam="2">0</pdfrwt>
<totfact> 0.33386514E+12</totfact>
</mgrwt>
</event>
<event>
 4    1  0.3064748E+006  0.2355618E+01  0.7546771E-02  0.2775821E+00
         22   -1    0    0    0    0  0.00000000000E+00  0.00000000000E+00  0.75541837995E+00  0.75541837995E+00  0.00000000000E+00 0. -1.
         22   -1    0    0    0    0 -0.00000000000E+00 -0.00000000000E+00 -0.81320302761E+01  0.81320302761E+01  0.00000000000E+00 0.  1.
          2    1    1    2  501    0 -0.15142747749E+01  0.18044112102E+01 -0.50702872198E+01  0.55907733726E+01  0.25500000000E-02 0.  1.
         -2    1    1    2    0  501  0.15142747749E+01 -0.18044112102E+01 -0.23063246763E+01  0.32966752835E+01  0.25500000000E-02 0. -1.
<mgrwt>
<rscale>  0 0.23556176E+01</rscale>
<asrwt>0</asrwt>
<pdfrwt beam="1">0</pdfrwt>
<pdfrwt beam="2">0</pdfrwt>
<totfact> 0.28029884E+12</totfact>
</mgrwt>
</event>
<event>
 4    1  0.3064748E+006  0.2464237E+01  0.7546771E-02  0.2724510E+00
         22   -1    0    0    0    0  0.00000000000E+00  0.00000000000E+00  0.23993272446E+01  0.23993272446E+01  0.00000000000E+00 0. -1.
         22   -1    0    0    0    0 -0.00000000000E+00 -0.00000000000E+00 -0.26039805894E+01  0.26039805894E+01  0.00000000000E+00 0.  1.
          2    1    1    2  501    0 -0.20645524282E+01  0.13453915872E+01  0.31676003978E+00  0.24845117582E+01  0.25500000000E-02 0. -1.
         -2    1    1    2    0  501  0.20645524282E+01 -0.13453915872E+01 -0.52141338453E+00  0.25187960758E+01  0.25500000000E-02 0.  1.
<mgrwt>
<rscale>  0 0.24642365E+01</rscale>
<asrwt>0</asrwt>
<pdfrwt beam="1">0</pdfrwt>
<pdfrwt beam="2">0</pdfrwt>
<totfact> 0.28553817E+12</totfact>
</mgrwt>
</event>
<event>
 4    1  0.3064748E+006  0.2063783E+01  0.7546771E-02  0.2938962E+00
         22   -1    0    0    0    0  0.00000000000E+00  0.00000000000E+00  0.96820686135E+00  0.96820686135E+00  0.00000000000E+00 0. -1.
         22   -1    0    0    0    0 -0.00000000000E+00 -0.00000000000E+00 -0.86788030240E+01  0.86788030240E+01  0.00000000000E+00 0.  1.
          2    1    1    2  501    0  0.46702393665E+00  0.20102446900E+01 -0.46809231585E+00  0.21162022564E+01  0.25500000000E-02 0. -1.
         -2    1    1    2    0  501 -0.46702393665E+00 -0.20102446900E+01 -0.72425038468E+01  0.75308076289E+01  0.25500000000E-02 0.  1.
<mgrwt>
<rscale>  0 0.20637833E+01</rscale>
<asrwt>0</asrwt>
<pdfrwt beam="1">0</pdfrwt>
<pdfrwt beam="2">0</pdfrwt>
<totfact> 0.19535938E+12</totfact>
</mgrwt>
</event>
<event>
 4    1  0.3064748E+006  0.2705689E+01  0.7546771E-02  0.2624253E+00
         22   -1    0    0    0    0  0.00000000000E+00  0.00000000000E+00  0.95644749625E+01  0.95644749625E+01  0.00000000000E+00 0.  1.
         22   -1    0    0    0    0 -0.00000000000E+00 -0.00000000000E+00 -0.76551791567E+00  0.76551791567E+00  0.00000000000E+00 0. -1.
          2    1    1    2  501    0 -0.21706413244E+01 -0.16152591887E+01  0.44605731134E+01  0.52170360367E+01  0.25500000000E-02 0.  1.
         -2    1    1    2    0  501  0.21706413244E+01  0.16152591887E+01  0.43383839334E+01  0.51129568414E+01  0.25500000000E-02 0. -1.
<mgrwt>
<rscale>  0 0.27056889E+01</rscale>
<asrwt>0</asrwt>
<pdfrwt beam="1">0</pdfrwt>
<pdfrwt beam="2">0</pdfrwt>
<totfact> 0.22705797E+12</totfact>
</mgrwt>
</event>
<event>
 4    1  0.3064748E+006  0.2415796E+01  0.7546771E-02  0.2746859E+00
         22   -1    0    0    0    0  0.00000000000E+00  0.00000000000E+00  0.20270565890E+02  0.20270565890E+02  0.00000000000E+00 0. -1.
         22   -1    0    0    0    0 -0.00000000000E+00 -0.00000000000E+00 -0.12570859890E+02  0.12570859890E+02  0.00000000000E+00 0.  1.
          2    1    1    2  501    0 -0.20671311382E+01 -0.12502121815E+01  0.20081436168E+02  0.20226224232E+02  0.25500000000E-02 0. -1.
         -2    1    1    2    0  501  0.20671311382E+01  0.12502121815E+01 -0.12381730168E+02  0.12615201548E+02  0.25500000000E-02 0.  1.
<mgrwt>
<rscale>  0 0.24157956E+01</rscale>
<asrwt>0</asrwt>
<pdfrwt beam="1">0</pdfrwt>
<pdfrwt beam="2">0</pdfrwt>
<totfact> 0.33948778E+10</totfact>
</mgrwt>
</event>
<event>
 4    1  0.3064748E+006  0.2104108E+01  0.7546771E-02  0.2913831E+00
         22   -1    0    0    0    0  0.00000000000E+00  0.00000000000E+00  0.46860264236E+02  0.46860264236E+02  0.00000000000E+00 0.  1.
         22   -1    0    0    0    0 -0.00000000000E+00 -0.00000000000E+00 -0.12190283896E+00  0.12190283896E+00  0.00000000000E+00 0. -1.
          2    1    1    2  501    0  0.59008597822E+00  0.20196690704E+01  0.34511279036E+02  0.34575361919E+02  0.25500000000E-02 0.  1.
         -2    1    1    2    0  501 -0.59008597822E+00 -0.20196690704E+01  0.12227082361E+02  0.12406805156E+02  0.25500000000E-02 0. -1.
<mgrwt>
<rscale>  0 0.21041082E+01</rscale>
<asrwt>0</asrwt>
<pdfrwt beam="1">0</pdfrwt>
<pdfrwt beam="2">0</pdfrwt>
<totfact> 0.24325505E+12</totfact>
</mgrwt>
</event>
<event>
 4    1  0.3064748E+006  0.4245013E+01  0.7546771E-02  0.2232771E+00
         22   -1    0    0    0    0  0.00000000000E+00  0.00000000000E+00  0.51045466424E+00  0.51045466424E+00  0.00000000000E+00 0.  1.
         22   -1    0    0    0    0 -0.00000000000E+00 -0.00000000000E+00 -0.37534766902E+02  0.37534766902E+02  0.00000000000E+00 0. -1.
          2    1    1    2  501    0  0.42304918147E+01 -0.35081113872E+00 -0.13872748904E+02  0.14507697891E+02  0.25500000000E-02 0. -1.
         -2    1    1    2    0  501 -0.42304918147E+01  0.35081113872E+00 -0.23151563334E+02  0.23537523675E+02  0.25500000000E-02 0.  1.
<mgrwt>
<rscale>  0 0.42450131E+01</rscale>
<asrwt>0</asrwt>
<pdfrwt beam="1">0</pdfrwt>
<pdfrwt beam="2">0</pdfrwt>
<totfact> 0.65422744E+11</totfact>
</mgrwt>
</event>
<event>
 4    1  0.3064748E+006  0.2198463E+01  0.7546771E-02  0.2858516E+00
         22   -1    0    0    0    0  0.00000000000E+00  0.00000000000E+00  0.81707768118E+01  0.81707768118E+01  0.00000000000E+00 0.  1.
         22   -1    0    0    0    0 -0.00000000000E+00 -0.00000000000E+00 -0.61647539408E+00  0.61647539408E+00  0.00000000000E+00 0. -1.
          2    1    1    2  501    0  0.15661954983E+01 -0.15428099873E+01  0.46610116864E+01  0.51534713969E+01  0.25500000000E-02 0.  1.
         -2    1    1    2    0  501 -0.15661954983E+01  0.15428099873E+01  0.28932897314E+01  0.36337808090E+01  0.25500000000E-02 0. -1.
<mgrwt>
<rscale>  0 0.21984625E+01</rscale>
<asrwt>0</asrwt>
<pdfrwt beam="1">0</pdfrwt>
<pdfrwt beam="2">0</pdfrwt>
<totfact> 0.35098409E+12</totfact>
</mgrwt>
</event>
<event>
 4    1  0.3064748E+006  0.2325406E+01  0.7546771E-02  0.2790894E+00
         22   -1    0    0    0    0  0.00000000000E+00  0.00000000000E+00  0.20661545319E+02  0.20661545319E+02  0.00000000000E+00 0.  1.
         22   -1    0    0    0    0 -0.00000000000E+00 -0.00000000000E+00 -0.34659355717E+00  0.34659355717E+00  0.00000000000E+00 0. -1.
          2    1    1    2  501    0 -0.22005321377E+01 -0.75177466649E+00  0.15355482165E+02  0.15530561673E+02  0.25500000000E-02 0.  1.
         -2    1    1    2    0  501  0.22005321377E+01  0.75177466649E+00  0.49594695962E+01  0.54775772031E+01  0.25500000000E-02 0. -1.
<mgrwt>
<rscale>  0 0.23254061E+01</rscale>
<asrwt>0</asrwt>
<pdfrwt beam="1">0</pdfrwt>
<pdfrwt beam="2">0</pdfrwt>
<totfact> 0.21589674E+12</totfact>
</mgrwt>
</event>
<event>
 4    1  0.3064748E+006  0.2106053E+01  0.7546771E-02  0.2912642E+00
         22   -1    0    0    0    0  0.00000000000E+00  0.00000000000E+00  0.42662474222E+01  0.42662474222E+01  0.00000000000E+00 0. -1.
         22   -1    0    0    0    0 -0.00000000000E+00 -0.00000000000E+00 -0.18909276303E+01  0.18909276303E+01  0.00000000000E+00 0.  1.
          2    1    1    2  501    0 -0.10256288425E+01 -0.18394399892E+01  0.32532602143E+01  0.38754564274E+01  0.25500000000E-02 0. -1.
         -2    1    1    2    0  501  0.10256288425E+01  0.18394399892E+01 -0.87794042242E+00  0.22817186251E+01  0.25500000000E-02 0.  1.
<mgrwt>
<rscale>  0 0.21060533E+01</rscale>
<asrwt>0</asrwt>
<pdfrwt beam="1">0</pdfrwt>
<pdfrwt beam="2">0</pdfrwt>
<totfact> 0.21103738E+12</totfact>
</mgrwt>
</event>
<event>
 4    1  0.3064748E+006  0.2400825E+01  0.7546771E-02  0.2753936E+00
         22   -1    0    0    0    0  0.00000000000E+00  0.00000000000E+00  0.99914428947E+01  0.99914428947E+01  0.00000000000E+00 0. -1.
         22   -1    0    0    0    0 -0.00000000000E+00 -0.00000000000E+00 -0.12289759061E+01  0.12289759061E+01  0.00000000000E+00 0.  1.
          2    1    1    2  501    0 -0.10256372709E+01 -0.21707190704E+01  0.84678127288E+01  0.88015800858E+01  0.25500000000E-02 0.  1.
         -2    1    1    2    0  501  0.10256372709E+01  0.21707190704E+01  0.29465425985E+00  0.24188387150E+01  0.25500000000E-02 0. -1.
<mgrwt>
<rscale>  0 0.24008248E+01</rscale>
<asrwt>0</asrwt>
<pdfrwt beam="1">0</pdfrwt>
<pdfrwt beam="2">0</pdfrwt>
<totfact> 0.12546453E+12</totfact>
</mgrwt>
</event>
<event>
 4    1  0.3064748E+006  0.2568650E+01  0.7546771E-02  0.2679017E+00
         22   -1    0    0    0    0  0.00000000000E+00  0.00000000000E+00  0.12991075967E+02  0.12991075967E+02  0.00000000000E+00 0.  1.
         22   -1    0    0    0    0 -0.00000000000E+00 -0.00000000000E+00 -0.73448622455E+00  0.73448622455E+00  0.00000000000E+00 0. -1.
          2    1    1    2  501    0  0.16644437082E+01 -0.19564205603E+01  0.99401845151E+01  0.10266704874E+02  0.25500000000E-02 0.  1.
         -2    1    1    2    0  501 -0.16644437082E+01  0.19564205603E+01  0.23164052278E+01  0.34588573183E+01  0.25500000000E-02 0. -1.
<mgrwt>
<rscale>  0 0.25686496E+01</rscale>
<asrwt>0</asrwt>
<pdfrwt beam="1">0</pdfrwt>
<pdfrwt beam="2">0</pdfrwt>
<totfact> 0.16400564E+12</totfact>
</mgrwt>
</event>
<event>
 4    1  0.3064748E+006  0.3236774E+01  0.7546771E-02  0.2452268E+00
         22   -1    0    0    0    0  0.00000000000E+00  0.00000000000E+00  0.46989002660E+02  0.46989002660E+02  0.00000000000E+00 0. -1.
         22   -1    0    0    0    0 -0.00000000000E+00 -0.00000000000E+00 -0.39108361137E+00  0.39108361137E+00  0.00000000000E+00 0.  1.
          2    1    1    2  501    0 -0.25929648025E+01 -0.19373267851E+01  0.38831564537E+02  0.38966230411E+02  0.25500000000E-02 0. -1.
         -2    1    1    2    0  501  0.25929648025E+01  0.19373267851E+01  0.77663545120E+01  0.84138558609E+01  0.25500000000E-02 0.  1.
<mgrwt>
<rscale>  0 0.32367743E+01</rscale>
<asrwt>0</asrwt>
<pdfrwt beam="1">0</pdfrwt>
<pdfrwt beam="2">0</pdfrwt>
<totfact> 0.65932131E+11</totfact>
</mgrwt>
</event>
<event>
 4    1  0.3064748E+006  0.2232734E+01  0.7546771E-02  0.2839538E+00
         22   -1    0    0    0    0  0.00000000000E+00  0.00000000000E+00  0.12986841533E+02  0.12986841533E+02  0.00000000000E+00 0. -1.
         22   -1    0    0    0    0 -0.00000000000E+00 -0.00000000000E+00 -0.58375161792E+00  0.58375161792E+00  0.00000000000E+00 0.  1.
          2    1    1    2  501    0  0.18481703443E+01 -0.12527415843E+01  0.10172128780E+02  0.10414283726E+02  0.25500000000E-02 0. -1.
         -2    1    1    2    0  501 -0.18481703443E+01  0.12527415843E+01  0.22309611347E+01  0.31563094249E+01  0.25500000000E-02 0.  1.
<mgrwt>
<rscale>  0 0.22327341E+01</rscale>
<asrwt>0</asrwt>
<pdfrwt beam="1">0</pdfrwt>
<pdfrwt beam="2">0</pdfrwt>
<totfact> 0.21287733E+12</totfact>
</mgrwt>
</event>
<event>
 4    1  0.3064748E+006  0.2028807E+01  0.7546771E-02  0.2961547E+00
         22   -1    0    0    0    0  0.00000000000E+00  0.00000000000E+00  0.82952302072E+01  0.82952302072E+01  0.00000000000E+00 0.  1.
         22   -1    0    0    0    0 -0.00000000000E+00 -0.00000000000E+00 -0.73625858907E+00  0.73625858907E+00  0.00000000000E+00 0. -1.
          2    1    1    2  501    0 -0.62546837673E+00  0.19299850804E+01  0.63580411461E+01  0.66738854365E+01  0.25500000000E-02 0.  1.
         -2    1    1    2    0  501  0.62546837673E+00 -0.19299850804E+01  0.12009304720E+01  0.23576033598E+01  0.25500000000E-02 0. -1.
<mgrwt>
<rscale>  0 0.20288074E+01</rscale>
<asrwt>0</asrwt>
<pdfrwt beam="1">0</pdfrwt>
<pdfrwt beam="2">0</pdfrwt>
<totfact> 0.28176727E+12</totfact>
</mgrwt>
</event>
<event>
 4    1  0.3064748E+006  0.3328930E+01  0.7546771E-02  0.2427453E+00
         22   -1    0    0    0    0  0.00000000000E+00  0.00000000000E+00  0.44228491863E+01  0.44228491863E+01  0.00000000000E+00 0. -1.
         22   -1    0    0    0    0 -0.00000000000E+00 -0.00000000000E+00 -0.37674964444E+01  0.37674964444E+01  0.00000000000E+00 0.  1.
          2    1    1    2  501    0 -0.13678484971E+01 -0.30349235096E+01  0.26977514811E+01  0.42848150224E+01  0.25500000000E-02 0. -1.
         -2    1    1    2    0  501  0.13678484971E+01  0.30349235096E+01 -0.20423987392E+01  0.39055306083E+01  0.25500000000E-02 0.  1.
<mgrwt>
<rscale>  0 0.33289303E+01</rscale>
<asrwt>0</asrwt>
<pdfrwt beam="1">0</pdfrwt>
<pdfrwt beam="2">0</pdfrwt>
<totfact> 0.90598306E+11</totfact>
</mgrwt>
</event>
<event>
 4    1  0.3064748E+006  0.2588946E+01  0.7546771E-02  0.2670570E+00
         22   -1    0    0    0    0  0.00000000000E+00  0.00000000000E+00  0.14575983657E+02  0.14575983657E+02  0.00000000000E+00 0.  1.
         22   -1    0    0    0    0 -0.00000000000E+00 -0.00000000000E+00 -0.11580892921E+01  0.11580892921E+01  0.00000000000E+00 0. -1.
          2    1    1    2  501    0 -0.81028301294E+00  0.24588766486E+01  0.12817593558E+02  0.13076442332E+02  0.25500000000E-02 0.  1.
         -2    1    1    2    0  501  0.81028301294E+00 -0.24588766486E+01  0.60030080615E+00  0.26576306167E+01  0.25500000000E-02 0. -1.
<mgrwt>
<rscale>  0 0.25889456E+01</rscale>
<asrwt>0</asrwt>
<pdfrwt beam="1">0</pdfrwt>
<pdfrwt beam="2">0</pdfrwt>
<totfact> 0.84730412E+11</totfact>
</mgrwt>
</event>
<event>
 4    1  0.3064748E+006  0.2611143E+01  0.7546771E-02  0.2661470E+00
         22   -1    0    0    0    0  0.00000000000E+00  0.00000000000E+00  0.78057344420E+01  0.78057344420E+01  0.00000000000E+00 0. -1.
         22   -1    0    0    0    0 -0.00000000000E+00 -0.00000000000E+00 -0.36890167893E+01  0.36890167893E+01  0.00000000000E+00 0.  1.
          2    1    1    2  501    0  0.18535578029E+00  0.26045546803E+01  0.70794222128E+01  0.75456137734E+01  0.25500000000E-02 0. -1.
         -2    1    1    2    0  501 -0.18535578029E+00 -0.26045546803E+01 -0.29627045601E+01  0.39491374578E+01  0.25500000000E-02 0.  1.
<mgrwt>
<rscale>  0 0.26111431E+01</rscale>
<asrwt>0</asrwt>
<pdfrwt beam="1">0</pdfrwt>
<pdfrwt beam="2">0</pdfrwt>
<totfact> 0.47239893E+11</totfact>
</mgrwt>
</event>
<event>
 4    1  0.3064748E+006  0.2030929E+01  0.7546771E-02  0.2960156E+00
         22   -1    0    0    0    0  0.00000000000E+00  0.00000000000E+00  0.25947760002E+01  0.25947760002E+01  0.00000000000E+00 0.  1.
         22   -1    0    0    0    0 -0.00000000000E+00 -0.00000000000E+00 -0.34034130429E+01  0.34034130429E+01  0.00000000000E+00 0. -1.
          2    1    1    2  501    0  0.20241940593E+01 -0.16523572296E+00  0.17850980051E+01  0.27039315494E+01  0.25500000000E-02 0.  1.
         -2    1    1    2    0  501 -0.20241940593E+01  0.16523572296E+00 -0.25937350479E+01  0.32942574937E+01  0.25500000000E-02 0. -1.
<mgrwt>
<rscale>  0 0.20309286E+01</rscale>
<asrwt>0</asrwt>
<pdfrwt beam="1">0</pdfrwt>
<pdfrwt beam="2">0</pdfrwt>
<totfact> 0.19065920E+12</totfact>
</mgrwt>
</event>
<event>
 4    1  0.3064748E+006  0.2497841E+01  0.7546771E-02  0.2709483E+00
         22   -1    0    0    0    0  0.00000000000E+00  0.00000000000E+00  0.28240788171E+01  0.28240788171E+01  0.00000000000E+00 0.  1.
         22   -1    0    0    0    0 -0.00000000000E+00 -0.00000000000E+00 -0.23791375182E+01  0.23791375182E+01  0.00000000000E+00 0. -1.
          2    1    1    2  501    0  0.95429239678E+00  0.23083605042E+01 -0.47265272829E+00  0.25421662612E+01  0.25500000000E-02 0.  1.
         -2    1    1    2    0  501 -0.95429239678E+00 -0.23083605042E+01  0.91759402720E+00  0.26610500741E+01  0.25500000000E-02 0. -1.
<mgrwt>
<rscale>  0 0.24978408E+01</rscale>
<asrwt>0</asrwt>
<pdfrwt beam="1">0</pdfrwt>
<pdfrwt beam="2">0</pdfrwt>
<totfact> 0.26233892E+12</totfact>
</mgrwt>
</event>
<event>
 4    1  0.3064748E+006  0.2280196E+01  0.7546771E-02  0.2814155E+00
         22   -1    0    0    0    0  0.00000000000E+00  0.00000000000E+00  0.46025348505E+01  0.46025348505E+01  0.00000000000E+00 0.  1.
         22   -1    0    0    0    0 -0.00000000000E+00 -0.00000000000E+00 -0.23741355568E+01  0.23741355568E+01  0.00000000000E+00 0. -1.
          2    1    1    2  501    0 -0.29560936415E+00 -0.22609516221E+01 -0.14113671719E+01  0.26816507845E+01  0.25500000000E-02 0. -1.
         -2    1    1    2    0  501  0.29560936415E+00  0.22609516221E+01  0.36397664656E+01  0.42950196228E+01  0.25500000000E-02 0.  1.
<mgrwt>
<rscale>  0 0.22801960E+01</rscale>
<asrwt>0</asrwt>
<pdfrwt beam="1">0</pdfrwt>
<pdfrwt beam="2">0</pdfrwt>
<totfact> 0.14823697E+12</totfact>
</mgrwt>
</event>
<event>
 4    1  0.3064748E+006  0.2668100E+01  0.7546771E-02  0.2638760E+00
         22   -1    0    0    0    0  0.00000000000E+00  0.00000000000E+00  0.16747855149E+02  0.16747855149E+02  0.00000000000E+00 0.  1.
         22   -1    0    0    0    0 -0.00000000000E+00 -0.00000000000E+00 -0.62779852353E+00  0.62779852353E+00  0.00000000000E+00 0. -1.
          2    1    1    2  501    0 -0.24188805736E+01 -0.11259515434E+01  0.12997159820E+02  0.13268192039E+02  0.25500000000E-02 0.  1.
         -2    1    1    2    0  501  0.24188805736E+01  0.11259515434E+01  0.31228968057E+01  0.41074616333E+01  0.25500000000E-02 0. -1.
<mgrwt>
<rscale>  0 0.26680998E+01</rscale>
<asrwt>0</asrwt>
<pdfrwt beam="1">0</pdfrwt>
<pdfrwt beam="2">0</pdfrwt>
<totfact> 0.14339524E+12</totfact>
</mgrwt>
</event>
<event>
 4    1  0.3064748E+006  0.2565896E+01  0.7546771E-02  0.2680173E+00
         22   -1    0    0    0    0  0.00000000000E+00  0.00000000000E+00  0.27303149133E+02  0.27303149133E+02  0.00000000000E+00 0.  1.
         22   -1    0    0    0    0 -0.00000000000E+00 -0.00000000000E+00 -0.80138584884E+00  0.80138584884E+00  0.00000000000E+00 0. -1.
          2    1    1    2  501    0  0.12642666412E+01  0.22328115970E+01  0.25000282147E+02  0.25131612198E+02  0.25500000000E-02 0.  1.
         -2    1    1    2    0  501 -0.12642666412E+01 -0.22328115970E+01  0.15014811373E+01  0.29729227834E+01  0.25500000000E-02 0. -1.
<mgrwt>
<rscale>  0 0.25658964E+01</rscale>
<asrwt>0</asrwt>
<pdfrwt beam="1">0</pdfrwt>
<pdfrwt beam="2">0</pdfrwt>
<totfact> 0.58957133E+11</totfact>
</mgrwt>
</event>
<event>
 4    1  0.3064748E+006  0.2606098E+01  0.7546771E-02  0.2663526E+00
         22   -1    0    0    0    0  0.00000000000E+00  0.00000000000E+00  0.56922637148E+00  0.56922637148E+00  0.00000000000E+00 0.  1.
         22   -1    0    0    0    0 -0.00000000000E+00 -0.00000000000E+00 -0.11948090884E+02  0.11948090884E+02  0.00000000000E+00 0. -1.
          2    1    1    2  501    0  0.93369615597E-01 -0.26044238353E+01 -0.54565014678E+01  0.60469129454E+01  0.25500000000E-02 0.  1.
         -2    1    1    2    0  501 -0.93369615597E-01  0.26044238353E+01 -0.59223630446E+01  0.64704043099E+01  0.25500000000E-02 0. -1.
<mgrwt>
<rscale>  0 0.26060982E+01</rscale>
<asrwt>0</asrwt>
<pdfrwt beam="1">0</pdfrwt>
<pdfrwt beam="2">0</pdfrwt>
<totfact> 0.24251757E+12</totfact>
</mgrwt>
</event>
<event>
 4    1  0.3064748E+006  0.2214799E+01  0.7546771E-02  0.2849399E+00
         22   -1    0    0    0    0  0.00000000000E+00  0.00000000000E+00  0.23652733543E+00  0.23652733543E+00  0.00000000000E+00 0. -1.
         22   -1    0    0    0    0 -0.00000000000E+00 -0.00000000000E+00 -0.21069699148E+02  0.21069699148E+02  0.00000000000E+00 0.  1.
          2    1    1    2  501    0  0.19791876719E+01  0.99405399568E+00 -0.11751282550E+02  0.11958176084E+02  0.25500000000E-02 0. -1.
         -2    1    1    2    0  501 -0.19791876719E+01 -0.99405399568E+00 -0.90818892626E+01  0.93480503993E+01  0.25500000000E-02 0.  1.
<mgrwt>
<rscale>  0 0.22147988E+01</rscale>
<asrwt>0</asrwt>
<pdfrwt beam="1">0</pdfrwt>
<pdfrwt beam="2">0</pdfrwt>
<totfact> 0.32327267E+12</totfact>
</mgrwt>
</event>
<event>
 4    1  0.3064748E+006  0.2046953E+01  0.7546771E-02  0.2949736E+00
         22   -1    0    0    0    0  0.00000000000E+00  0.00000000000E+00  0.11649613018E+00  0.11649613018E+00  0.00000000000E+00 0.  1.
         22   -1    0    0    0    0 -0.00000000000E+00 -0.00000000000E+00 -0.41873050536E+02  0.41873050536E+02  0.00000000000E+00 0. -1.
          2    1    1    2  501    0 -0.11470422988E+01 -0.16953771270E+01 -0.12993443763E+02  0.13153691381E+02  0.25500000000E-02 0.  1.
         -2    1    1    2    0  501  0.11470422988E+01  0.16953771270E+01 -0.28763110643E+02  0.28835855285E+02  0.25500000000E-02 0. -1.
<mgrwt>
<rscale>  0 0.20469529E+01</rscale>
<asrwt>0</asrwt>
<pdfrwt beam="1">0</pdfrwt>
<pdfrwt beam="2">0</pdfrwt>
<totfact> 0.29633514E+12</totfact>
</mgrwt>
</event>
<event>
 4    1  0.3064748E+006  0.4000707E+01  0.7546771E-02  0.2277159E+00
         22   -1    0    0    0    0  0.00000000000E+00  0.00000000000E+00  0.75915357467E+00  0.75915357467E+00  0.00000000000E+00 0.  1.
         22   -1    0    0    0    0 -0.00000000000E+00 -0.00000000000E+00 -0.24567789202E+02  0.24567789202E+02  0.00000000000E+00 0. -1.
          2    1    1    2  501    0 -0.38432149087E+01  0.11114613657E+01 -0.71353586342E+01  0.81804032018E+01  0.25500000000E-02 0.  1.
         -2    1    1    2    0  501  0.38432149087E+01 -0.11114613657E+01 -0.16673276994E+02  0.17146539575E+02  0.25500000000E-02 0. -1.
<mgrwt>
<rscale>  0 0.40007067E+01</rscale>
<asrwt>0</asrwt>
<pdfrwt beam="1">0</pdfrwt>
<pdfrwt beam="2">0</pdfrwt>
<totfact> 0.71651564E+11</totfact>
</mgrwt>
</event>
<event>
 4    1  0.3064748E+006  0.2299235E+01  0.7546771E-02  0.2804254E+00
         22   -1    0    0    0    0  0.00000000000E+00  0.00000000000E+00  0.19996103268E+01  0.19996103268E+01  0.00000000000E+00 0.  1.
         22   -1    0    0    0    0 -0.00000000000E+00 -0.00000000000E+00 -0.29438210647E+01  0.29438210647E+01  0.00000000000E+00 0. -1.
          2    1    1    2  501    0  0.50353447356E+00  0.22434184077E+01 -0.12612403896E+01  0.26224429338E+01  0.25500000000E-02 0. -1.
         -2    1    1    2    0  501 -0.50353447356E+00 -0.22434184077E+01  0.31702965175E+00  0.23209884577E+01  0.25500000000E-02 0.  1.
<mgrwt>
<rscale>  0 0.22992346E+01</rscale>
<asrwt>0</asrwt>
<pdfrwt beam="1">0</pdfrwt>
<pdfrwt beam="2">0</pdfrwt>
<totfact> 0.30572354E+12</totfact>
</mgrwt>
</event>
<event>
 4    1  0.3064748E+006  0.2088444E+01  0.7546771E-02  0.2923481E+00
         22   -1    0    0    0    0  0.00000000000E+00  0.00000000000E+00  0.10468856438E+01  0.10468856438E+01  0.00000000000E+00 0.  1.
         22   -1    0    0    0    0 -0.00000000000E+00 -0.00000000000E+00 -0.43568893361E+01  0.43568893361E+01  0.00000000000E+00 0. -1.
          2    1    1    2  501    0 -0.20569186956E+01  0.36149584543E+00 -0.10898421828E+01  0.23557071661E+01  0.25500000000E-02 0.  1.
         -2    1    1    2    0  501  0.20569186956E+01 -0.36149584543E+00 -0.22201615095E+01  0.30480678138E+01  0.25500000000E-02 0. -1.
<mgrwt>
<rscale>  0 0.20884445E+01</rscale>
<asrwt>0</asrwt>
<pdfrwt beam="1">0</pdfrwt>
<pdfrwt beam="2">0</pdfrwt>
<totfact> 0.40616396E+12</totfact>
</mgrwt>
</event>
<event>
 4    1  0.3064748E+006  0.4614900E+01  0.7546771E-02  0.2173200E+00
         22   -1    0    0    0    0  0.00000000000E+00  0.00000000000E+00  0.47438485692E+00  0.47438485692E+00  0.00000000000E+00 0.  1.
         22   -1    0    0    0    0 -0.00000000000E+00 -0.00000000000E+00 -0.66639240995E+02  0.66639240995E+02  0.00000000000E+00 0. -1.
          2    1    1    2  501    0 -0.38875413824E+01  0.24868295209E+01 -0.13913753832E+02  0.14659121776E+02  0.25500000000E-02 0.  1.
         -2    1    1    2    0  501  0.38875413824E+01 -0.24868295209E+01 -0.52251102307E+02  0.52454504076E+02  0.25500000000E-02 0. -1.
<mgrwt>
<rscale>  0 0.46149004E+01</rscale>
<asrwt>0</asrwt>
<pdfrwt beam="1">0</pdfrwt>
<pdfrwt beam="2">0</pdfrwt>
<totfact> 0.33315228E+11</totfact>
</mgrwt>
</event>
<event>
 4    1  0.3064748E+006  0.2271266E+01  0.7546771E-02  0.2818853E+00
         22   -1    0    0    0    0  0.00000000000E+00  0.00000000000E+00  0.62337340865E+01  0.62337340865E+01  0.00000000000E+00 0. -1.
         22   -1    0    0    0    0 -0.00000000000E+00 -0.00000000000E+00 -0.13281244655E+02  0.13281244655E+02  0.00000000000E+00 0.  1.
          2    1    1    2  501    0  0.20980402119E+01  0.86998291208E+00  0.59248568337E+01  0.63452799781E+01  0.25500000000E-02 0. -1.
         -2    1    1    2    0  501 -0.20980402119E+01 -0.86998291208E+00 -0.12972367402E+02  0.13169698763E+02  0.25500000000E-02 0.  1.
<mgrwt>
<rscale>  0 0.22712661E+01</rscale>
<asrwt>0</asrwt>
<pdfrwt beam="1">0</pdfrwt>
<pdfrwt beam="2">0</pdfrwt>
<totfact> 0.13337554E+11</totfact>
</mgrwt>
</event>
<event>
 4    1  0.3064748E+006  0.3509089E+01  0.7546771E-02  0.2382264E+00
         22   -1    0    0    0    0  0.00000000000E+00  0.00000000000E+00  0.26232989817E+01  0.26232989817E+01  0.00000000000E+00 0.  1.
         22   -1    0    0    0    0 -0.00000000000E+00 -0.00000000000E+00 -0.51050484493E+01  0.51050484493E+01  0.00000000000E+00 0. -1.
          2    1    1    2  501    0  0.70182744614E+00 -0.34381882185E+01 -0.14435846026E+00  0.35120572116E+01  0.25500000000E-02 0.  1.
         -2    1    1    2    0  501 -0.70182744614E+00  0.34381882185E+01 -0.23373910074E+01  0.42162902194E+01  0.25500000000E-02 0. -1.
<mgrwt>
<rscale>  0 0.35090891E+01</rscale>
<asrwt>0</asrwt>
<pdfrwt beam="1">0</pdfrwt>
<pdfrwt beam="2">0</pdfrwt>
<totfact> 0.11676950E+12</totfact>
</mgrwt>
</event>
<event>
 4    1  0.3064748E+006  0.7290817E+01  0.7546771E-02  0.1920193E+00
         22   -1    0    0    0    0  0.00000000000E+00  0.00000000000E+00  0.54071937306E+01  0.54071937306E+01  0.00000000000E+00 0.  1.
         22   -1    0    0    0    0 -0.00000000000E+00 -0.00000000000E+00 -0.12924471990E+02  0.12924471990E+02  0.00000000000E+00 0. -1.
          2    1    1    2  501    0  0.23460440735E+01 -0.69030489097E+01  0.72588109507E+00  0.73268626922E+01  0.25500000000E-02 0. -1.
         -2    1    1    2    0  501 -0.23460440735E+01  0.69030489097E+01 -0.82431593541E+01  0.11004803028E+02  0.25500000000E-02 0.  1.
<mgrwt>
<rscale>  0 0.72908171E+01</rscale>
<asrwt>0</asrwt>
<pdfrwt beam="1">0</pdfrwt>
<pdfrwt beam="2">0</pdfrwt>
<totfact> 0.16332080E+11</totfact>
</mgrwt>
</event>
<event>
 4    1  0.3064748E+006  0.2135290E+01  0.7546771E-02  0.2895029E+00
         22   -1    0    0    0    0  0.00000000000E+00  0.00000000000E+00  0.10821376284E+01  0.10821376284E+01  0.00000000000E+00 0.  1.
         22   -1    0    0    0    0 -0.00000000000E+00 -0.00000000000E+00 -0.74977153835E+01  0.74977153835E+01  0.00000000000E+00 0. -1.
          2    1    1    2  501    0  0.13502718580E+01  0.16541536842E+01 -0.36850615389E+00  0.21668552765E+01  0.25500000000E-02 0.  1.
         -2    1    1    2    0  501 -0.13502718580E+01 -0.16541536842E+01 -0.60470716012E+01  0.64129977354E+01  0.25500000000E-02 0. -1.
<mgrwt>
<rscale>  0 0.21352904E+01</rscale>
<asrwt>0</asrwt>
<pdfrwt beam="1">0</pdfrwt>
<pdfrwt beam="2">0</pdfrwt>
<totfact> 0.20511502E+12</totfact>
</mgrwt>
</event>
<event>
 4    1  0.3064748E+006  0.2014590E+01  0.7546771E-02  0.2970947E+00
         22   -1    0    0    0    0  0.00000000000E+00  0.00000000000E+00  0.17735834409E+01  0.17735834409E+01  0.00000000000E+00 0. -1.
         22   -1    0    0    0    0 -0.00000000000E+00 -0.00000000000E+00 -0.23172418194E+01  0.23172418194E+01  0.00000000000E+00 0.  1.
          2    1    1    2  501    0 -0.14371795963E+00 -0.20094551915E+01 -0.50024029568E+00  0.20757677795E+01  0.25500000000E-02 0.  1.
         -2    1    1    2    0  501  0.14371795963E+00  0.20094551915E+01 -0.43418082833E-01  0.20150574808E+01  0.25500000000E-02 0. -1.
<mgrwt>
<rscale>  0 0.20145897E+01</rscale>
<asrwt>0</asrwt>
<pdfrwt beam="1">0</pdfrwt>
<pdfrwt beam="2">0</pdfrwt>
<totfact> 0.46402975E+12</totfact>
</mgrwt>
</event>
<event>
 4    1  0.3064748E+006  0.4024153E+01  0.7546771E-02  0.2272701E+00
         22   -1    0    0    0    0  0.00000000000E+00  0.00000000000E+00  0.65048814186E+02  0.65048814186E+02  0.00000000000E+00 0.  1.
         22   -1    0    0    0    0 -0.00000000000E+00 -0.00000000000E+00 -0.37668864189E+00  0.37668864189E+00  0.00000000000E+00 0. -1.
          2    1    1    2  501    0 -0.38260949862E+01  0.12469148119E+01  0.13286304150E+02  0.13882351525E+02  0.25500000000E-02 0. -1.
         -2    1    1    2    0  501  0.38260949862E+01 -0.12469148119E+01  0.51385821394E+02  0.51543151303E+02  0.25500000000E-02 0.  1.
<mgrwt>
<rscale>  0 0.40241528E+01</rscale>
<asrwt>0</asrwt>
<pdfrwt beam="1">0</pdfrwt>
<pdfrwt beam="2">0</pdfrwt>
<totfact> 0.44628784E+11</totfact>
</mgrwt>
</event>
<event>
 4    1  0.3064748E+006  0.3619547E+01  0.7546771E-02  0.2356508E+00
         22   -1    0    0    0    0  0.00000000000E+00  0.00000000000E+00  0.32818588760E+02  0.32818588760E+02  0.00000000000E+00 0.  1.
         22   -1    0    0    0    0 -0.00000000000E+00 -0.00000000000E+00 -0.88158498597E+00  0.88158498597E+00  0.00000000000E+00 0. -1.
          2    1    1    2  501    0 -0.35169649401E+01  0.85561014839E+00  0.28432799409E+02  0.28662260900E+02  0.25500000000E-02 0.  1.
         -2    1    1    2    0  501  0.35169649401E+01 -0.85561014839E+00  0.35042043645E+01  0.50379128463E+01  0.25500000000E-02 0. -1.
<mgrwt>
<rscale>  0 0.36195466E+01</rscale>
<asrwt>0</asrwt>
<pdfrwt beam="1">0</pdfrwt>
<pdfrwt beam="2">0</pdfrwt>
<totfact> 0.41837067E+11</totfact>
</mgrwt>
</event>
<event>
 4    1  0.3064748E+006  0.2032340E+01  0.7546771E-02  0.2959231E+00
         22   -1    0    0    0    0  0.00000000000E+00  0.00000000000E+00  0.43640977931E+01  0.43640977931E+01  0.00000000000E+00 0. -1.
         22   -1    0    0    0    0 -0.00000000000E+00 -0.00000000000E+00 -0.20041270504E+01  0.20041270504E+01  0.00000000000E+00 0.  1.
          2    1    1    2  501    0  0.14441441007E+01 -0.14299814559E+01  0.34931261215E+01  0.40413284636E+01  0.25500000000E-02 0. -1.
         -2    1    1    2    0  501 -0.14441441007E+01  0.14299814559E+01 -0.11331553788E+01  0.23268963798E+01  0.25500000000E-02 0.  1.
<mgrwt>
<rscale>  0 0.20323399E+01</rscale>
<asrwt>0</asrwt>
<pdfrwt beam="1">0</pdfrwt>
<pdfrwt beam="2">0</pdfrwt>
<totfact> 0.19209983E+12</totfact>
</mgrwt>
</event>
<event>
 4    1  0.3064748E+006  0.2587590E+01  0.7546771E-02  0.2671130E+00
         22   -1    0    0    0    0  0.00000000000E+00  0.00000000000E+00  0.40774079003E+01  0.40774079003E+01  0.00000000000E+00 0.  1.
         22   -1    0    0    0    0 -0.00000000000E+00 -0.00000000000E+00 -0.18491341666E+01  0.18491341666E+01  0.00000000000E+00 0. -1.
          2    1    1    2  501    0  0.21510802088E+01 -0.14382180901E+01  0.21056061838E+01  0.33360457496E+01  0.25500000000E-02 0.  1.
         -2    1    1    2    0  501 -0.21510802088E+01  0.14382180901E+01  0.12266754991E+00  0.25904963173E+01  0.25500000000E-02 0. -1.
<mgrwt>
<rscale>  0 0.25875904E+01</rscale>
<asrwt>0</asrwt>
<pdfrwt beam="1">0</pdfrwt>
<pdfrwt beam="2">0</pdfrwt>
<totfact> 0.22843906E+12</totfact>
</mgrwt>
</event>
<event>
 4    1  0.3064748E+006  0.2430775E+01  0.7546771E-02  0.2739859E+00
         22   -1    0    0    0    0  0.00000000000E+00  0.00000000000E+00  0.13657556947E+02  0.13657556947E+02  0.00000000000E+00 0. -1.
         22   -1    0    0    0    0 -0.00000000000E+00 -0.00000000000E+00 -0.69515469815E+00  0.69515469815E+00  0.00000000000E+00 0.  1.
          2    1    1    2  501    0  0.23287919061E+01 -0.69670000187E+00  0.10891299732E+02  0.11159259787E+02  0.25500000000E-02 0. -1.
         -2    1    1    2    0  501 -0.23287919061E+01  0.69670000187E+00  0.20711025171E+01  0.31934518586E+01  0.25500000000E-02 0.  1.
<mgrwt>
<rscale>  0 0.24307754E+01</rscale>
<asrwt>0</asrwt>
<pdfrwt beam="1">0</pdfrwt>
<pdfrwt beam="2">0</pdfrwt>
<totfact> 0.16420613E+12</totfact>
</mgrwt>
</event>
<event>
 4    1  0.3064748E+006  0.2927054E+01  0.7546771E-02  0.2545747E+00
         22   -1    0    0    0    0  0.00000000000E+00  0.00000000000E+00  0.47537145323E+00  0.47537145323E+00  0.00000000000E+00 0. -1.
         22   -1    0    0    0    0 -0.00000000000E+00 -0.00000000000E+00 -0.32501911892E+02  0.32501911892E+02  0.00000000000E+00 0.  1.
          2    1    1    2  501    0 -0.28128488649E+01  0.80964022770E+00 -0.50080770991E+01  0.58007308822E+01  0.25500000000E-02 0. -1.
         -2    1    1    2    0  501  0.28128488649E+01 -0.80964022770E+00 -0.27018463339E+02  0.27176552463E+02  0.25500000000E-02 0.  1.
<mgrwt>
<rscale>  0 0.29270536E+01</rscale>
<asrwt>0</asrwt>
<pdfrwt beam="1">0</pdfrwt>
<pdfrwt beam="2">0</pdfrwt>
<totfact> 0.85322986E+11</totfact>
</mgrwt>
</event>
<event>
 4    1  0.3064748E+006  0.2242630E+01  0.7546771E-02  0.2834161E+00
         22   -1    0    0    0    0  0.00000000000E+00  0.00000000000E+00  0.11447634679E+01  0.11447634679E+01  0.00000000000E+00 0. -1.
         22   -1    0    0    0    0 -0.00000000000E+00 -0.00000000000E+00 -0.14466402334E+02  0.14466402334E+02  0.00000000000E+00 0.  1.
          2    1    1    2  501    0  0.97629550756E+00 -0.20189678714E+01 -0.14746389019E+00  0.22474733114E+01  0.25500000000E-02 0. -1.
         -2    1    1    2    0  501 -0.97629550756E+00  0.20189678714E+01 -0.13174174975E+02  0.13363692490E+02  0.25500000000E-02 0.  1.
<mgrwt>
<rscale>  0 0.22426303E+01</rscale>
<asrwt>0</asrwt>
<pdfrwt beam="1">0</pdfrwt>
<pdfrwt beam="2">0</pdfrwt>
<totfact> 0.86656917E+11</totfact>
</mgrwt>
</event>
<event>
 4    1  0.3064748E+006  0.2658233E+01  0.7546771E-02  0.2642630E+00
         22   -1    0    0    0    0  0.00000000000E+00  0.00000000000E+00  0.31668682346E+01  0.31668682346E+01  0.00000000000E+00 0. -1.
         22   -1    0    0    0    0 -0.00000000000E+00 -0.00000000000E+00 -0.22312944021E+01  0.22312944021E+01  0.00000000000E+00 0.  1.
          2    1    1    2  501    0 -0.23812216013E+01 -0.11815162684E+01  0.47128287764E+00  0.26996872152E+01  0.25500000000E-02 0. -1.
         -2    1    1    2    0  501  0.23812216013E+01  0.11815162684E+01  0.46429095484E+00  0.26984754214E+01  0.25500000000E-02 0.  1.
<mgrwt>
<rscale>  0 0.26582332E+01</rscale>
<asrwt>0</asrwt>
<pdfrwt beam="1">0</pdfrwt>
<pdfrwt beam="2">0</pdfrwt>
<totfact> 0.24722917E+12</totfact>
</mgrwt>
</event>
<event>
 4    1  0.3064748E+006  0.2381573E+01  0.7546771E-02  0.2763161E+00
         22   -1    0    0    0    0  0.00000000000E+00  0.00000000000E+00  0.59815202172E+00  0.59815202172E+00  0.00000000000E+00 0.  1.
         22   -1    0    0    0    0 -0.00000000000E+00 -0.00000000000E+00 -0.15041354491E+02  0.15041354491E+02  0.00000000000E+00 0. -1.
          2    1    1    2  501    0 -0.70619158237E+00  0.22744613739E+01 -0.24677231673E+01  0.34295109309E+01  0.25500000000E-02 0.  1.
         -2    1    1    2    0  501  0.70619158237E+00 -0.22744613739E+01 -0.11975479302E+02  0.12209995582E+02  0.25500000000E-02 0. -1.
<mgrwt>
<rscale>  0 0.23815725E+01</rscale>
<asrwt>0</asrwt>
<pdfrwt beam="1">0</pdfrwt>
<pdfrwt beam="2">0</pdfrwt>
<totfact> 0.17294165E+12</totfact>
</mgrwt>
</event>
<event>
 4    1  0.3064748E+006  0.2460376E+01  0.7546771E-02  0.2726261E+00
         22   -1    0    0    0    0  0.00000000000E+00  0.00000000000E+00  0.77044078012E+01  0.77044078012E+01  0.00000000000E+00 0.  1.
         22   -1    0    0    0    0 -0.00000000000E+00 -0.00000000000E+00 -0.90533280388E+00  0.90533280388E+00  0.00000000000E+00 0. -1.
          2    1    1    2  501    0  0.21107215208E+01  0.12642382633E+01  0.49643352951E+01  0.55405843690E+01  0.25500000000E-02 0.  1.
         -2    1    1    2    0  501 -0.21107215208E+01 -0.12642382633E+01  0.18347397022E+01  0.30691562362E+01  0.25500000000E-02 0. -1.
<mgrwt>
<rscale>  0 0.24603760E+01</rscale>
<asrwt>0</asrwt>
<pdfrwt beam="1">0</pdfrwt>
<pdfrwt beam="2">0</pdfrwt>
<totfact> 0.24339518E+12</totfact>
</mgrwt>
</event>
<event>
 4    1  0.3064748E+006  0.5033550E+01  0.7546771E-02  0.2119020E+00
         22   -1    0    0    0    0  0.00000000000E+00  0.00000000000E+00  0.11778298986E+01  0.11778298986E+01  0.00000000000E+00 0. -1.
         22   -1    0    0    0    0 -0.00000000000E+00 -0.00000000000E+00 -0.33363286734E+02  0.33363286734E+02  0.00000000000E+00 0.  1.
          2    1    1    2  501    0 -0.31566394786E+01 -0.39207452678E+01 -0.57991115069E+01  0.76789528599E+01  0.25500000000E-02 0. -1.
         -2    1    1    2    0  501  0.31566394786E+01  0.39207452678E+01 -0.26386345329E+02  0.26862163773E+02  0.25500000000E-02 0.  1.
<mgrwt>
<rscale>  0 0.50335497E+01</rscale>
<asrwt>0</asrwt>
<pdfrwt beam="1">0</pdfrwt>
<pdfrwt beam="2">0</pdfrwt>
<totfact> 0.29421712E+11</totfact>
</mgrwt>
</event>
<event>
 4    1  0.3064748E+006  0.2400812E+01  0.7546771E-02  0.2753942E+00
         22   -1    0    0    0    0  0.00000000000E+00  0.00000000000E+00  0.14804360128E+01  0.14804360128E+01  0.00000000000E+00 0. -1.
         22   -1    0    0    0    0 -0.00000000000E+00 -0.00000000000E+00 -0.40770009449E+01  0.40770009449E+01  0.00000000000E+00 0.  1.
          2    1    1    2  501    0  0.14536290423E+01 -0.19107212407E+01 -0.70857642246E+00  0.25031939800E+01  0.25500000000E-02 0. -1.
         -2    1    1    2    0  501 -0.14536290423E+01  0.19107212407E+01 -0.18879885096E+01  0.30542429778E+01  0.25500000000E-02 0.  1.
<mgrwt>
<rscale>  0 0.24008123E+01</rscale>
<asrwt>0</asrwt>
<pdfrwt beam="1">0</pdfrwt>
<pdfrwt beam="2">0</pdfrwt>
<totfact> 0.29523025E+12</totfact>
</mgrwt>
</event>
<event>
 4    1  0.3064748E+006  0.2223435E+01  0.7546771E-02  0.2844632E+00
         22   -1    0    0    0    0  0.00000000000E+00  0.00000000000E+00  0.34550088088E+01  0.34550088088E+01  0.00000000000E+00 0.  1.
         22   -1    0    0    0    0 -0.00000000000E+00 -0.00000000000E+00 -0.14661956185E+01  0.14661956185E+01  0.00000000000E+00 0. -1.
          2    1    1    2  501    0 -0.80229061127E+00  0.20736410796E+01  0.13763492537E+01  0.26149572315E+01  0.25500000000E-02 0. -1.
         -2    1    1    2    0  501  0.80229061127E+00 -0.20736410796E+01  0.61246393660E+00  0.23062471958E+01  0.25500000000E-02 0.  1.
<mgrwt>
<rscale>  0 0.22234352E+01</rscale>
<asrwt>0</asrwt>
<pdfrwt beam="1">0</pdfrwt>
<pdfrwt beam="2">0</pdfrwt>
<totfact> 0.36260693E+12</totfact>
</mgrwt>
</event>
<event>
 4    1  0.3064748E+006  0.2173652E+01  0.7546771E-02  0.2872613E+00
         22   -1    0    0    0    0  0.00000000000E+00  0.00000000000E+00  0.50724845171E+01  0.50724845171E+01  0.00000000000E+00 0.  1.
         22   -1    0    0    0    0 -0.00000000000E+00 -0.00000000000E+00 -0.41073979387E+01  0.41073979387E+01  0.00000000000E+00 0. -1.
          2    1    1    2  501    0 -0.52840275613E+00 -0.21084461742E+01  0.45186299412E+01  0.50142574516E+01  0.25500000000E-02 0.  1.
         -2    1    1    2    0  501  0.52840275613E+00  0.21084461742E+01 -0.35535433628E+01  0.41656250043E+01  0.25500000000E-02 0. -1.
<mgrwt>
<rscale>  0 0.21736516E+01</rscale>
<asrwt>0</asrwt>
<pdfrwt beam="1">0</pdfrwt>
<pdfrwt beam="2">0</pdfrwt>
<totfact> 0.69598538E+11</totfact>
</mgrwt>
</event>
<event>
 4    1  0.3064748E+006  0.3019425E+01  0.7546771E-02  0.2516077E+00
         22   -1    0    0    0    0  0.00000000000E+00  0.00000000000E+00  0.49106678001E+01  0.49106678001E+01  0.00000000000E+00 0.  1.
         22   -1    0    0    0    0 -0.00000000000E+00 -0.00000000000E+00 -0.33976485605E+01  0.33976485605E+01  0.00000000000E+00 0. -1.
          2    1    1    2  501    0 -0.15077620054E+01 -0.26160220886E+01  0.35542558529E+01  0.46636529677E+01  0.25500000000E-02 0. -1.
         -2    1    1    2    0  501  0.15077620054E+01  0.26160220886E+01 -0.20412366134E+01  0.36446633929E+01  0.25500000000E-02 0.  1.
<mgrwt>
<rscale>  0 0.30194245E+01</rscale>
<asrwt>0</asrwt>
<pdfrwt beam="1">0</pdfrwt>
<pdfrwt beam="2">0</pdfrwt>
<totfact> 0.90381235E+11</totfact>
</mgrwt>
</event>
<event>
 4    1  0.3064748E+006  0.2238740E+01  0.7546771E-02  0.2836269E+00
         22   -1    0    0    0    0  0.00000000000E+00  0.00000000000E+00  0.21833859068E+02  0.21833859068E+02  0.00000000000E+00 0.  1.
         22   -1    0    0    0    0 -0.00000000000E+00 -0.00000000000E+00 -0.16375449146E+01  0.16375449146E+01  0.00000000000E+00 0. -1.
          2    1    1    2  501    0  0.12944479143E+01  0.18265690887E+01  0.20980265448E+02  0.21099371906E+02  0.25500000000E-02 0.  1.
         -2    1    1    2    0  501 -0.12944479143E+01 -0.18265690887E+01 -0.78395129469E+00  0.23720320769E+01  0.25500000000E-02 0. -1.
<mgrwt>
<rscale>  0 0.22387399E+01</rscale>
<asrwt>0</asrwt>
<pdfrwt beam="1">0</pdfrwt>
<pdfrwt beam="2">0</pdfrwt>
<totfact> 0.34475393E+11</totfact>
</mgrwt>
</event>
<event>
 4    1  0.3064748E+006  0.2159634E+01  0.7546771E-02  0.2880715E+00
         22   -1    0    0    0    0  0.00000000000E+00  0.00000000000E+00  0.89604034072E+01  0.89604034072E+01  0.00000000000E+00 0. -1.
         22   -1    0    0    0    0 -0.00000000000E+00 -0.00000000000E+00 -0.53341712772E+00  0.53341712772E+00  0.00000000000E+00 0.  1.
          2    1    1    2  501    0 -0.16562174325E+01 -0.13859853867E+01  0.49517710244E+01  0.54022268053E+01  0.25500000000E-02 0.  1.
         -2    1    1    2    0  501  0.16562174325E+01  0.13859853867E+01  0.34752152551E+01  0.40915937295E+01  0.25500000000E-02 0. -1.
<mgrwt>
<rscale>  0 0.21596338E+01</rscale>
<asrwt>0</asrwt>
<pdfrwt beam="1">0</pdfrwt>
<pdfrwt beam="2">0</pdfrwt>
<totfact> 0.36996174E+12</totfact>
</mgrwt>
</event>
<event>
 4    1  0.3064748E+006  0.3730078E+01  0.7546771E-02  0.2332064E+00
         22   -1    0    0    0    0  0.00000000000E+00  0.00000000000E+00  0.29519582625E+02  0.29519582625E+02  0.00000000000E+00 0.  1.
         22   -1    0    0    0    0 -0.00000000000E+00 -0.00000000000E+00 -0.51042355780E+00  0.51042355780E+00  0.00000000000E+00 0. -1.
          2    1    1    2  501    0  0.18851447356E+01 -0.32186494778E+01  0.18659947767E+02  0.19029112756E+02  0.25500000000E-02 0.  1.
         -2    1    1    2    0  501 -0.18851447356E+01  0.32186494778E+01  0.10349211300E+02  0.11000893426E+02  0.25500000000E-02 0. -1.
<mgrwt>
<rscale>  0 0.37300780E+01</rscale>
<asrwt>0</asrwt>
<pdfrwt beam="1">0</pdfrwt>
<pdfrwt beam="2">0</pdfrwt>
<totfact> 0.89034332E+11</totfact>
</mgrwt>
</event>
<event>
 4    1  0.3064748E+006  0.2335396E+01  0.7546771E-02  0.2785869E+00
         22   -1    0    0    0    0  0.00000000000E+00  0.00000000000E+00  0.50471141511E+01  0.50471141511E+01  0.00000000000E+00 0.  1.
         22   -1    0    0    0    0 -0.00000000000E+00 -0.00000000000E+00 -0.12743272432E+01  0.12743272432E+01  0.00000000000E+00 0. -1.
          2    1    1    2  501    0  0.84421417121E+00 -0.21774690010E+01  0.65412703927E+00  0.24252747274E+01  0.25500000000E-02 0. -1.
         -2    1    1    2    0  501 -0.84421417121E+00  0.21774690010E+01  0.31186598686E+01  0.38961666668E+01  0.25500000000E-02 0.  1.
<mgrwt>
<rscale>  0 0.23353962E+01</rscale>
<asrwt>0</asrwt>
<pdfrwt beam="1">0</pdfrwt>
<pdfrwt beam="2">0</pdfrwt>
<totfact> 0.27257363E+12</totfact>
</mgrwt>
</event>
<event>
 4    1  0.3064748E+006  0.5526281E+01  0.7546771E-02  0.2064972E+00
         22   -1    0    0    0    0  0.00000000000E+00  0.00000000000E+00  0.57050393772E+02  0.57050393772E+02  0.00000000000E+00 0.  1.
         22   -1    0    0    0    0 -0.00000000000E+00 -0.00000000000E+00 -0.54538730407E+00  0.54538730407E+00  0.00000000000E+00 0. -1.
          2    1    1    2  501    0 -0.32539079280E+01  0.44667505157E+01  0.32166572654E+02  0.32637833565E+02  0.25500000000E-02 0. -1.
         -2    1    1    2    0  501  0.32539079280E+01 -0.44667505157E+01  0.24338433813E+02  0.24957947511E+02  0.25500000000E-02 0.  1.
<mgrwt>
<rscale>  0 0.55262812E+01</rscale>
<asrwt>0</asrwt>
<pdfrwt beam="1">0</pdfrwt>
<pdfrwt beam="2">0</pdfrwt>
<totfact> 0.35054388E+11</totfact>
</mgrwt>
</event>
<event>
 4    1  0.3064748E+006  0.2290444E+01  0.7546771E-02  0.2808806E+00
         22   -1    0    0    0    0  0.00000000000E+00  0.00000000000E+00  0.24728870898E+00  0.24728870898E+00  0.00000000000E+00 0.  1.
         22   -1    0    0    0    0 -0.00000000000E+00 -0.00000000000E+00 -0.28160875107E+02  0.28160875107E+02  0.00000000000E+00 0. -1.
          2    1    1    2  501    0  0.15119284154E+01  0.17205227407E+01 -0.69022987518E+01  0.72724040452E+01  0.25500000000E-02 0.  1.
         -2    1    1    2    0  501 -0.15119284154E+01 -0.17205227407E+01 -0.21011287646E+02  0.21135759770E+02  0.25500000000E-02 0. -1.
<mgrwt>
<rscale>  0 0.22904437E+01</rscale>
<asrwt>0</asrwt>
<pdfrwt beam="1">0</pdfrwt>
<pdfrwt beam="2">0</pdfrwt>
<totfact> 0.21343156E+12</totfact>
</mgrwt>
</event>
<event>
 4    1  0.3064748E+006  0.2411834E+01  0.7546771E-02  0.2748723E+00
         22   -1    0    0    0    0  0.00000000000E+00  0.00000000000E+00  0.93651287050E+00  0.93651287050E+00  0.00000000000E+00 0. -1.
         22   -1    0    0    0    0 -0.00000000000E+00 -0.00000000000E+00 -0.63224058628E+01  0.63224058628E+01  0.00000000000E+00 0.  1.
          2    1    1    2  501    0  0.22565109895E+01  0.85152506168E+00 -0.22117647699E+01  0.32724374213E+01  0.25500000000E-02 0.  1.
         -2    1    1    2    0  501 -0.22565109895E+01 -0.85152506168E+00 -0.31741282224E+01  0.39864813120E+01  0.25500000000E-02 0. -1.
<mgrwt>
<rscale>  0 0.24118340E+01</rscale>
<asrwt>0</asrwt>
<pdfrwt beam="1">0</pdfrwt>
<pdfrwt beam="2">0</pdfrwt>
<totfact> 0.29664070E+12</totfact>
</mgrwt>
</event>
<event>
 4    1  0.3064748E+006  0.2307171E+01  0.7546771E-02  0.2800172E+00
         22   -1    0    0    0    0  0.00000000000E+00  0.00000000000E+00  0.11880126526E+01  0.11880126526E+01  0.00000000000E+00 0.  1.
         22   -1    0    0    0    0 -0.00000000000E+00 -0.00000000000E+00 -0.66348751330E+01  0.66348751330E+01  0.00000000000E+00 0. -1.
          2    1    1    2  501    0 -0.43485101191E+00  0.22658194089E+01 -0.49464321289E+00  0.23595998404E+01  0.25500000000E-02 0.  1.
         -2    1    1    2    0  501  0.43485101191E+00 -0.22658194089E+01 -0.49522192675E+01  0.54632879452E+01  0.25500000000E-02 0. -1.
<mgrwt>
<rscale>  0 0.23071713E+01</rscale>
<asrwt>0</asrwt>
<pdfrwt beam="1">0</pdfrwt>
<pdfrwt beam="2">0</pdfrwt>
<totfact> 0.21337375E+12</totfact>
</mgrwt>
</event>
<event>
 4    1  0.3064748E+006  0.2516389E+01  0.7546771E-02  0.2701349E+00
         22   -1    0    0    0    0  0.00000000000E+00  0.00000000000E+00  0.19827728043E+01  0.19827728043E+01  0.00000000000E+00 0. -1.
         22   -1    0    0    0    0 -0.00000000000E+00 -0.00000000000E+00 -0.68130343883E+01  0.68130343883E+01  0.00000000000E+00 0.  1.
          2    1    1    2  501    0  0.99932810492E+00 -0.23094475937E+01  0.79036283594E+00  0.26375907120E+01  0.25500000000E-02 0. -1.
         -2    1    1    2    0  501 -0.99932810492E+00  0.23094475937E+01 -0.56206244199E+01  0.61582164806E+01  0.25500000000E-02 0.  1.
<mgrwt>
<rscale>  0 0.25163886E+01</rscale>
<asrwt>0</asrwt>
<pdfrwt beam="1">0</pdfrwt>
<pdfrwt beam="2">0</pdfrwt>
<totfact> 0.11463328E+12</totfact>
</mgrwt>
</event>
<event>
 4    1  0.3064748E+006  0.4061771E+01  0.7546771E-02  0.2265640E+00
         22   -1    0    0    0    0  0.00000000000E+00  0.00000000000E+00  0.27742903767E+01  0.27742903767E+01  0.00000000000E+00 0. -1.
         22   -1    0    0    0    0 -0.00000000000E+00 -0.00000000000E+00 -0.10003949483E+02  0.10003949483E+02  0.00000000000E+00 0.  1.
          2    1    1    2  501    0  0.31448649308E+01 -0.25705644415E+01  0.45399545995E+00  0.40870643940E+01  0.25500000000E-02 0. -1.
         -2    1    1    2    0  501 -0.31448649308E+01  0.25705644415E+01 -0.76836545661E+01  0.86911754656E+01  0.25500000000E-02 0.  1.
<mgrwt>
<rscale>  0 0.40617710E+01</rscale>
<asrwt>0</asrwt>
<pdfrwt beam="1">0</pdfrwt>
<pdfrwt beam="2">0</pdfrwt>
<totfact> 0.48889257E+11</totfact>
</mgrwt>
</event>
<event>
 4    1  0.3064748E+006  0.2032363E+01  0.7546771E-02  0.2959217E+00
         22   -1    0    0    0    0  0.00000000000E+00  0.00000000000E+00  0.13509464747E+00  0.13509464747E+00  0.00000000000E+00 0. -1.
         22   -1    0    0    0    0 -0.00000000000E+00 -0.00000000000E+00 -0.32403796349E+02  0.32403796349E+02  0.00000000000E+00 0.  1.
          2    1    1    2  501    0  0.20019797656E+01 -0.35009786592E+00 -0.19999584921E+02  0.20102584287E+02  0.25500000000E-02 0.  1.
         -2    1    1    2    0  501 -0.20019797656E+01  0.35009786592E+00 -0.12269116781E+02  0.12436306710E+02  0.25500000000E-02 0. -1.
<mgrwt>
<rscale>  0 0.20323627E+01</rscale>
<asrwt>0</asrwt>
<pdfrwt beam="1">0</pdfrwt>
<pdfrwt beam="2">0</pdfrwt>
<totfact> 0.35004622E+12</totfact>
</mgrwt>
</event>
<event>
 4    1  0.3064748E+006  0.2080507E+01  0.7546771E-02  0.2928424E+00
         22   -1    0    0    0    0  0.00000000000E+00  0.00000000000E+00  0.59572925884E+00  0.59572925884E+00  0.00000000000E+00 0.  1.
         22   -1    0    0    0    0 -0.00000000000E+00 -0.00000000000E+00 -0.26778800743E+02  0.26778800743E+02  0.00000000000E+00 0. -1.
          2    1    1    2  501    0  0.14875870394E+01 -0.14545066843E+01 -0.14077928640E+01  0.25120493914E+01  0.25500000000E-02 0.  1.
         -2    1    1    2    0  501 -0.14875870394E+01  0.14545066843E+01 -0.24775278620E+02  0.24862480610E+02  0.25500000000E-02 0. -1.
<mgrwt>
<rscale>  0 0.20805075E+01</rscale>
<asrwt>0</asrwt>
<pdfrwt beam="1">0</pdfrwt>
<pdfrwt beam="2">0</pdfrwt>
<totfact> 0.84592817E+11</totfact>
</mgrwt>
</event>
<event>
 4    1  0.3064748E+006  0.3047078E+01  0.7546771E-02  0.2507509E+00
         22   -1    0    0    0    0  0.00000000000E+00  0.00000000000E+00  0.19258063538E+01  0.19258063538E+01  0.00000000000E+00 0.  1.
         22   -1    0    0    0    0 -0.00000000000E+00 -0.00000000000E+00 -0.48220190430E+01  0.48220190430E+01  0.00000000000E+00 0. -1.
          2    1    1    2  501    0  0.15600247581E+01  0.26174416131E+01 -0.14922622438E+01  0.33928647115E+01  0.25500000000E-02 0. -1.
         -2    1    1    2    0  501 -0.15600247581E+01 -0.26174416131E+01 -0.14039504454E+01  0.33549606852E+01  0.25500000000E-02 0.  1.
<mgrwt>
<rscale>  0 0.30470780E+01</rscale>
<asrwt>0</asrwt>
<pdfrwt beam="1">0</pdfrwt>
<pdfrwt beam="2">0</pdfrwt>
<totfact> 0.17882186E+12</totfact>
</mgrwt>
</event>
<event>
 4    1  0.3064748E+006  0.2745640E+01  0.7546771E-02  0.2609235E+00
         22   -1    0    0    0    0  0.00000000000E+00  0.00000000000E+00  0.10972057574E+01  0.10972057574E+01  0.00000000000E+00 0.  1.
         22   -1    0    0    0    0 -0.00000000000E+00 -0.00000000000E+00 -0.21212044149E+02  0.21212044149E+02  0.00000000000E+00 0. -1.
          2    1    1    2  501    0  0.15127956968E+01 -0.22912842371E+01 -0.88552437590E+00  0.28849080052E+01  0.25500000000E-02 0.  1.
         -2    1    1    2    0  501 -0.15127956968E+01  0.22912842371E+01 -0.19229314016E+02  0.19424341901E+02  0.25500000000E-02 0. -1.
<mgrwt>
<rscale>  0 0.27456403E+01</rscale>
<asrwt>0</asrwt>
<pdfrwt beam="1">0</pdfrwt>
<pdfrwt beam="2">0</pdfrwt>
<totfact> 0.56611993E+11</totfact>
</mgrwt>
</event>
<event>
 4    1  0.3064748E+006  0.2753113E+01  0.7546771E-02  0.2606469E+00
         22   -1    0    0    0    0  0.00000000000E+00  0.00000000000E+00  0.12388096759E+02  0.12388096759E+02  0.00000000000E+00 0.  1.
         22   -1    0    0    0    0 -0.00000000000E+00 -0.00000000000E+00 -0.66315491009E+00  0.66315491009E+00  0.00000000000E+00 0. -1.
          2    1    1    2  501    0  0.25596156195E+01  0.10139008490E+01  0.76775775850E+01  0.81562755672E+01  0.25500000000E-02 0.  1.
         -2    1    1    2    0  501 -0.25596156195E+01 -0.10139008490E+01  0.40473642640E+01  0.48949761020E+01  0.25500000000E-02 0. -1.
<mgrwt>
<rscale>  0 0.27531134E+01</rscale>
<asrwt>0</asrwt>
<pdfrwt beam="1">0</pdfrwt>
<pdfrwt beam="2">0</pdfrwt>
<totfact> 0.19518559E+12</totfact>
</mgrwt>
</event>
<event>
 4    1  0.3064748E+006  0.2302443E+01  0.7546771E-02  0.2802601E+00
         22   -1    0    0    0    0  0.00000000000E+00  0.00000000000E+00  0.14510831387E+02  0.14510831387E+02  0.00000000000E+00 0. -1.
         22   -1    0    0    0    0 -0.00000000000E+00 -0.00000000000E+00 -0.40127992495E+00  0.40127992495E+00  0.00000000000E+00 0.  1.
          2    1    1    2  501    0  0.12171802140E+01  0.19544074511E+01  0.92864672148E+01  0.95676389978E+01  0.25500000000E-02 0. -1.
         -2    1    1    2    0  501 -0.12171802140E+01 -0.19544074511E+01  0.48230842472E+01  0.53444723141E+01  0.25500000000E-02 0.  1.
<mgrwt>
<rscale>  0 0.23024428E+01</rscale>
<asrwt>0</asrwt>
<pdfrwt beam="1">0</pdfrwt>
<pdfrwt beam="2">0</pdfrwt>
<totfact> 0.28365440E+12</totfact>
</mgrwt>
</event>
<event>
 4    1  0.3064748E+006  0.3174786E+01  0.7546771E-02  0.2469674E+00
         22   -1    0    0    0    0  0.00000000000E+00  0.00000000000E+00  0.56436411120E+01  0.56436411120E+01  0.00000000000E+00 0. -1.
         22   -1    0    0    0    0 -0.00000000000E+00 -0.00000000000E+00 -0.23887754377E+01  0.23887754377E+01  0.00000000000E+00 0.  1.
          2    1    1    2  501    0 -0.30458863334E+01 -0.89545148223E+00 -0.39011659927E+00  0.31986644677E+01  0.25500000000E-02 0.  1.
         -2    1    1    2    0  501  0.30458863334E+01  0.89545148223E+00  0.36449822736E+01  0.48337520820E+01  0.25500000000E-02 0. -1.
<mgrwt>
<rscale>  0 0.31747856E+01</rscale>
<asrwt>0</asrwt>
<pdfrwt beam="1">0</pdfrwt>
<pdfrwt beam="2">0</pdfrwt>
<totfact> 0.11560022E+12</totfact>
</mgrwt>
</event>
<event>
 4    1  0.3064748E+006  0.6032973E+01  0.7546771E-02  0.2016743E+00
         22   -1    0    0    0    0  0.00000000000E+00  0.00000000000E+00  0.61755883477E+01  0.61755883477E+01  0.00000000000E+00 0. -1.
         22   -1    0    0    0    0 -0.00000000000E+00 -0.00000000000E+00 -0.18917210161E+02  0.18917210161E+02  0.00000000000E+00 0.  1.
          2    1    1    2  501    0 -0.14601238483E+01  0.58536134750E+01  0.40393013460E+01  0.72603522114E+01  0.25500000000E-02 0. -1.
         -2    1    1    2    0  501  0.14601238483E+01 -0.58536134750E+01 -0.16780923159E+02  0.17832446297E+02  0.25500000000E-02 0.  1.
<mgrwt>
<rscale>  0 0.60329726E+01</rscale>
<asrwt>0</asrwt>
<pdfrwt beam="1">0</pdfrwt>
<pdfrwt beam="2">0</pdfrwt>
<totfact> 0.87183711E+10</totfact>
</mgrwt>
</event>
<event>
 4    1  0.3064748E+006  0.2033048E+01  0.7546771E-02  0.2958768E+00
         22   -1    0    0    0    0  0.00000000000E+00  0.00000000000E+00  0.33107792196E+00  0.33107792196E+00  0.00000000000E+00 0.  1.
         22   -1    0    0    0    0 -0.00000000000E+00 -0.00000000000E+00 -0.13015480304E+02  0.13015480304E+02  0.00000000000E+00 0. -1.
          2    1    1    2  501    0 -0.10038304520E+01 -0.17679377902E+01 -0.49941145216E+01  0.53920743655E+01  0.25500000000E-02 0.  1.
         -2    1    1    2    0  501  0.10038304520E+01  0.17679377902E+01 -0.76902878608E+01  0.79544838607E+01  0.25500000000E-02 0. -1.
<mgrwt>
<rscale>  0 0.20330485E+01</rscale>
<asrwt>0</asrwt>
<pdfrwt beam="1">0</pdfrwt>
<pdfrwt beam="2">0</pdfrwt>
<totfact> 0.40230800E+12</totfact>
</mgrwt>
</event>
<event>
 4    1  0.3064748E+006  0.2144034E+01  0.7546771E-02  0.2889851E+00
         22   -1    0    0    0    0  0.00000000000E+00  0.00000000000E+00  0.60543414668E+00  0.60543414668E+00  0.00000000000E+00 0. -1.
         22   -1    0    0    0    0 -0.00000000000E+00 -0.00000000000E+00 -0.16475193307E+02  0.16475193307E+02  0.00000000000E+00 0.  1.
          2    1    1    2  501    0 -0.20514889556E+01  0.62311179066E+00 -0.16640365015E+01  0.27140190160E+01  0.25500000000E-02 0. -1.
         -2    1    1    2    0  501  0.20514889556E+01 -0.62311179066E+00 -0.14205722659E+02  0.14366608437E+02  0.25500000000E-02 0.  1.
<mgrwt>
<rscale>  0 0.21440340E+01</rscale>
<asrwt>0</asrwt>
<pdfrwt beam="1">0</pdfrwt>
<pdfrwt beam="2">0</pdfrwt>
<totfact> 0.15246261E+12</totfact>
</mgrwt>
</event>
<event>
 4    1  0.3064748E+006  0.2491531E+01  0.7546771E-02  0.2712275E+00
         22   -1    0    0    0    0  0.00000000000E+00  0.00000000000E+00  0.77157798122E+01  0.77157798122E+01  0.00000000000E+00 0. -1.
         22   -1    0    0    0    0 -0.00000000000E+00 -0.00000000000E+00 -0.80554742468E+00  0.80554742468E+00  0.00000000000E+00 0.  1.
          2    1    1    2  501    0  0.13445041537E+01  0.20976249574E+01  0.33051699384E+01  0.41390671298E+01  0.25500000000E-02 0. -1.
         -2    1    1    2    0  501 -0.13445041537E+01 -0.20976249574E+01  0.36050624492E+01  0.43822601071E+01  0.25500000000E-02 0.  1.
<mgrwt>
<rscale>  0 0.24915313E+01</rscale>
<asrwt>0</asrwt>
<pdfrwt beam="1">0</pdfrwt>
<pdfrwt beam="2">0</pdfrwt>
<totfact> 0.27752604E+12</totfact>
</mgrwt>
</event>
<event>
 4    1  0.3064748E+006  0.2751984E+01  0.7546771E-02  0.2606886E+00
         22   -1    0    0    0    0  0.00000000000E+00  0.00000000000E+00  0.32935313196E+00  0.32935313196E+00  0.00000000000E+00 0.  1.
         22   -1    0    0    0    0 -0.00000000000E+00 -0.00000000000E+00 -0.48918152314E+02  0.48918152314E+02  0.00000000000E+00 0. -1.
          2    1    1    2  501    0  0.86602618883E+00 -0.26121658939E+01 -0.63691765643E+01  0.69382871537E+01  0.25500000000E-02 0.  1.
         -2    1    1    2    0  501 -0.86602618883E+00  0.26121658939E+01 -0.42219622618E+02  0.42309218293E+02  0.25500000000E-02 0. -1.
<mgrwt>
<rscale>  0 0.27519845E+01</rscale>
<asrwt>0</asrwt>
<pdfrwt beam="1">0</pdfrwt>
<pdfrwt beam="2">0</pdfrwt>
<totfact> 0.75852903E+11</totfact>
</mgrwt>
</event>
<event>
 4    1  0.3064748E+006  0.2059294E+01  0.7546771E-02  0.2941819E+00
         22   -1    0    0    0    0  0.00000000000E+00  0.00000000000E+00  0.49212752228E+00  0.49212752228E+00  0.00000000000E+00 0.  1.
         22   -1    0    0    0    0 -0.00000000000E+00 -0.00000000000E+00 -0.27910696508E+02  0.27910696508E+02  0.00000000000E+00 0. -1.
          2    1    1    2  501    0 -0.81984994320E+00 -0.18890556840E+01 -0.19019124017E+01  0.28032057707E+01  0.25500000000E-02 0.  1.
         -2    1    1    2    0  501  0.81984994320E+00  0.18890556840E+01 -0.25516656584E+02  0.25599618259E+02  0.25500000000E-02 0. -1.
<mgrwt>
<rscale>  0 0.20592940E+01</rscale>
<asrwt>0</asrwt>
<pdfrwt beam="1">0</pdfrwt>
<pdfrwt beam="2">0</pdfrwt>
<totfact> 0.99619808E+11</totfact>
</mgrwt>
</event>
<event>
 4    1  0.3064748E+006  0.2936288E+01  0.7546771E-02  0.2542705E+00
         22   -1    0    0    0    0  0.00000000000E+00  0.00000000000E+00  0.24168790264E+00  0.24168790264E+00  0.00000000000E+00 0.  1.
         22   -1    0    0    0    0 -0.00000000000E+00 -0.00000000000E+00 -0.35734275412E+02  0.35734275412E+02  0.00000000000E+00 0. -1.
          2    1    1    2  501    0 -0.26694833257E+01  0.12229635198E+01 -0.17002802484E+02  0.17254479993E+02  0.25500000000E-02 0.  1.
         -2    1    1    2    0  501  0.26694833257E+01 -0.12229635198E+01 -0.18489785025E+02  0.18721483322E+02  0.25500000000E-02 0. -1.
<mgrwt>
<rscale>  0 0.29362880E+01</rscale>
<asrwt>0</asrwt>
<pdfrwt beam="1">0</pdfrwt>
<pdfrwt beam="2">0</pdfrwt>
<totfact> 0.16148522E+12</totfact>
</mgrwt>
</event>
<event>
 4    1  0.3064748E+006  0.2412182E+01  0.7546771E-02  0.2748559E+00
         22   -1    0    0    0    0  0.00000000000E+00  0.00000000000E+00  0.15000903759E+01  0.15000903759E+01  0.00000000000E+00 0.  1.
         22   -1    0    0    0    0 -0.00000000000E+00 -0.00000000000E+00 -0.10499880360E+02  0.10499880360E+02  0.00000000000E+00 0. -1.
          2    1    1    2  501    0 -0.24112138639E+01  0.68290240008E-01  0.26464389111E+00  0.24266558772E+01  0.25500000000E-02 0.  1.
         -2    1    1    2    0  501  0.24112138639E+01 -0.68290240008E-01 -0.92644338756E+01  0.95733148592E+01  0.25500000000E-02 0. -1.
<mgrwt>
<rscale>  0 0.24121821E+01</rscale>
<asrwt>0</asrwt>
<pdfrwt beam="1">0</pdfrwt>
<pdfrwt beam="2">0</pdfrwt>
<totfact> 0.93966536E+11</totfact>
</mgrwt>
</event>
<event>
 4    1  0.3064748E+006  0.3242701E+01  0.7546771E-02  0.2450635E+00
         22   -1    0    0    0    0  0.00000000000E+00  0.00000000000E+00  0.35954713428E+01  0.35954713428E+01  0.00000000000E+00 0.  1.
         22   -1    0    0    0    0 -0.00000000000E+00 -0.00000000000E+00 -0.36145325632E+01  0.36145325632E+01  0.00000000000E+00 0. -1.
          2    1    1    2  501    0  0.29479643733E+01 -0.13507815057E+01  0.15655422335E+01  0.36008379039E+01  0.25500000000E-02 0.  1.
         -2    1    1    2    0  501 -0.29479643733E+01  0.13507815057E+01 -0.15846034539E+01  0.36091660022E+01  0.25500000000E-02 0. -1.
<mgrwt>
<rscale>  0 0.32427012E+01</rscale>
<asrwt>0</asrwt>
<pdfrwt beam="1">0</pdfrwt>
<pdfrwt beam="2">0</pdfrwt>
<totfact> 0.12136514E+12</totfact>
</mgrwt>
</event>
<event>
 4    1  0.3064748E+006  0.4951778E+01  0.7546771E-02  0.2128804E+00
         22   -1    0    0    0    0  0.00000000000E+00  0.00000000000E+00  0.77515075445E+01  0.77515075445E+01  0.00000000000E+00 0. -1.
         22   -1    0    0    0    0 -0.00000000000E+00 -0.00000000000E+00 -0.37916353901E+01  0.37916353901E+01  0.00000000000E+00 0.  1.
          2    1    1    2  501    0 -0.18081359197E+01  0.46098533204E+01  0.43294985362E+01  0.65775882523E+01  0.25500000000E-02 0. -1.
         -2    1    1    2    0  501  0.18081359197E+01 -0.46098533204E+01 -0.36962638174E+00  0.49655546824E+01  0.25500000000E-02 0.  1.
<mgrwt>
<rscale>  0 0.49517784E+01</rscale>
<asrwt>0</asrwt>
<pdfrwt beam="1">0</pdfrwt>
<pdfrwt beam="2">0</pdfrwt>
<totfact> 0.46127066E+11</totfact>
</mgrwt>
</event>
<event>
 4    1  0.3064748E+006  0.2022453E+01  0.7546771E-02  0.2965732E+00
         22   -1    0    0    0    0  0.00000000000E+00  0.00000000000E+00  0.12709168266E+02  0.12709168266E+02  0.00000000000E+00 0. -1.
         22   -1    0    0    0    0 -0.00000000000E+00 -0.00000000000E+00 -0.34281726171E+00  0.34281726171E+00  0.00000000000E+00 0.  1.
          2    1    1    2  501    0 -0.17948100624E+01 -0.93218427724E+00  0.77975001866E+01  0.80555152753E+01  0.25500000000E-02 0. -1.
         -2    1    1    2    0  501  0.17948100624E+01  0.93218427724E+00  0.45688508174E+01  0.49964702522E+01  0.25500000000E-02 0.  1.
<mgrwt>
<rscale>  0 0.20224533E+01</rscale>
<asrwt>0</asrwt>
<pdfrwt beam="1">0</pdfrwt>
<pdfrwt beam="2">0</pdfrwt>
<totfact> 0.39830012E+12</totfact>
</mgrwt>
</event>
<event>
 4    1  0.3064748E+006  0.2162595E+01  0.7546771E-02  0.2878995E+00
         22   -1    0    0    0    0  0.00000000000E+00  0.00000000000E+00  0.26347618399E+00  0.26347618399E+00  0.00000000000E+00 0. -1.
         22   -1    0    0    0    0 -0.00000000000E+00 -0.00000000000E+00 -0.20512831802E+02  0.20512831802E+02  0.00000000000E+00 0.  1.
          2    1    1    2  501    0  0.21557727239E+01  0.17162782813E+00 -0.63125445665E+01  0.66727084122E+01  0.25500000000E-02 0.  1.
         -2    1    1    2    0  501 -0.21557727239E+01 -0.17162782813E+00 -0.13936811052E+02  0.14103599574E+02  0.25500000000E-02 0. -1.
<mgrwt>
<rscale>  0 0.21625954E+01</rscale>
<asrwt>0</asrwt>
<pdfrwt beam="1">0</pdfrwt>
<pdfrwt beam="2">0</pdfrwt>
<totfact> 0.29626462E+12</totfact>
</mgrwt>
</event>
<event>
 4    1  0.3064748E+006  0.4125050E+01  0.7546771E-02  0.2254010E+00
         22   -1    0    0    0    0  0.00000000000E+00  0.00000000000E+00  0.75783752801E+01  0.75783752801E+01  0.00000000000E+00 0.  1.
         22   -1    0    0    0    0 -0.00000000000E+00 -0.00000000000E+00 -0.27079008005E+01  0.27079008005E+01  0.00000000000E+00 0. -1.
          2    1    1    2  501    0  0.23514902081E+01  0.33891778959E+01  0.45609059349E+01  0.61496262048E+01  0.25500000000E-02 0.  1.
         -2    1    1    2    0  501 -0.23514902081E+01 -0.33891778959E+01  0.30956854468E+00  0.41366498758E+01  0.25500000000E-02 0. -1.
<mgrwt>
<rscale>  0 0.41250502E+01</rscale>
<asrwt>0</asrwt>
<pdfrwt beam="1">0</pdfrwt>
<pdfrwt beam="2">0</pdfrwt>
<totfact> 0.70273072E+11</totfact>
</mgrwt>
</event>
<event>
 4    1  0.3064748E+006  0.2248498E+01  0.7546771E-02  0.2830994E+00
         22   -1    0    0    0    0  0.00000000000E+00  0.00000000000E+00  0.13575812156E+00  0.13575812156E+00  0.00000000000E+00 0. -1.
         22   -1    0    0    0    0 -0.00000000000E+00 -0.00000000000E+00 -0.37756735506E+02  0.37756735506E+02  0.00000000000E+00 0.  1.
          2    1    1    2  501    0  0.10866181571E+01 -0.19685009595E+01 -0.16595751787E+02  0.16747379464E+02  0.25500000000E-02 0.  1.
         -2    1    1    2    0  501 -0.10866181571E+01  0.19685009595E+01 -0.21025225598E+02  0.21145114164E+02  0.25500000000E-02 0. -1.
<mgrwt>
<rscale>  0 0.22484976E+01</rscale>
<asrwt>0</asrwt>
<pdfrwt beam="1">0</pdfrwt>
<pdfrwt beam="2">0</pdfrwt>
<totfact> 0.28600212E+12</totfact>
</mgrwt>
</event>
<event>
 4    1  0.3064748E+006  0.2180813E+01  0.7546771E-02  0.2868512E+00
         22   -1    0    0    0    0  0.00000000000E+00  0.00000000000E+00  0.32837065511E+00  0.32837065511E+00  0.00000000000E+00 0. -1.
         22   -1    0    0    0    0 -0.00000000000E+00 -0.00000000000E+00 -0.17168239669E+02  0.17168239669E+02  0.00000000000E+00 0.  1.
          2    1    1    2  501    0 -0.12091097460E+01  0.18149358631E+01 -0.49604219021E+01  0.54186465574E+01  0.25500000000E-02 0. -1.
         -2    1    1    2    0  501  0.12091097460E+01 -0.18149358631E+01 -0.11879447112E+02  0.12077963767E+02  0.25500000000E-02 0.  1.
<mgrwt>
<rscale>  0 0.21808129E+01</rscale>
<asrwt>0</asrwt>
<pdfrwt beam="1">0</pdfrwt>
<pdfrwt beam="2">0</pdfrwt>
<totfact> 0.28879673E+12</totfact>
</mgrwt>
</event>
<event>
 4    1  0.3064748E+006  0.2700062E+01  0.7546771E-02  0.2626402E+00
         22   -1    0    0    0    0  0.00000000000E+00  0.00000000000E+00  0.11173674484E+01  0.11173674484E+01  0.00000000000E+00 0.  1.
         22   -1    0    0    0    0 -0.00000000000E+00 -0.00000000000E+00 -0.88913013204E+01  0.88913013204E+01  0.00000000000E+00 0. -1.
          2    1    1    2  501    0  0.19823735020E+00 -0.26927732825E+01 -0.13050698530E+01  0.29989231103E+01  0.25500000000E-02 0.  1.
         -2    1    1    2    0  501 -0.19823735020E+00  0.26927732825E+01 -0.64688640189E+01  0.70097456584E+01  0.25500000000E-02 0. -1.
<mgrwt>
<rscale>  0 0.27000616E+01</rscale>
<asrwt>0</asrwt>
<pdfrwt beam="1">0</pdfrwt>
<pdfrwt beam="2">0</pdfrwt>
<totfact> 0.16110136E+12</totfact>
</mgrwt>
</event>
<event>
 4    1  0.3064748E+006  0.3086621E+01  0.7546771E-02  0.2495496E+00
         22   -1    0    0    0    0  0.00000000000E+00  0.00000000000E+00  0.48975996136E+01  0.48975996136E+01  0.00000000000E+00 0. -1.
         22   -1    0    0    0    0 -0.00000000000E+00 -0.00000000000E+00 -0.58429956200E+01  0.58429956200E+01  0.00000000000E+00 0.  1.
          2    1    1    2  501    0  0.12112329158E+01  0.28390380616E+01  0.39134708916E+01  0.49842234313E+01  0.25500000000E-02 0. -1.
         -2    1    1    2    0  501 -0.12112329158E+01 -0.28390380616E+01 -0.48588668980E+01  0.57563718023E+01  0.25500000000E-02 0.  1.
<mgrwt>
<rscale>  0 0.30866209E+01</rscale>
<asrwt>0</asrwt>
<pdfrwt beam="1">0</pdfrwt>
<pdfrwt beam="2">0</pdfrwt>
<totfact> 0.47811607E+11</totfact>
</mgrwt>
</event>
<event>
 4    1  0.3064748E+006  0.2058089E+01  0.7546771E-02  0.2942588E+00
         22   -1    0    0    0    0  0.00000000000E+00  0.00000000000E+00  0.81894653223E+01  0.81894653223E+01  0.00000000000E+00 0.  1.
         22   -1    0    0    0    0 -0.00000000000E+00 -0.00000000000E+00 -0.53723528748E+00  0.53723528748E+00  0.00000000000E+00 0. -1.
          2    1    1    2  501    0  0.20548216277E+01 -0.11590223985E+00  0.46683821660E+01  0.51019137391E+01  0.25500000000E-02 0.  1.
         -2    1    1    2    0  501 -0.20548216277E+01  0.11590223985E+00  0.29838478688E+01  0.36247868707E+01  0.25500000000E-02 0. -1.
<mgrwt>
<rscale>  0 0.20580893E+01</rscale>
<asrwt>0</asrwt>
<pdfrwt beam="1">0</pdfrwt>
<pdfrwt beam="2">0</pdfrwt>
<totfact> 0.40897377E+12</totfact>
</mgrwt>
</event>
<event>
 4    1  0.3064748E+006  0.2259583E+01  0.7546771E-02  0.2825053E+00
         22   -1    0    0    0    0  0.00000000000E+00  0.00000000000E+00  0.49265448968E+02  0.49265448968E+02  0.00000000000E+00 0.  1.
         22   -1    0    0    0    0 -0.00000000000E+00 -0.00000000000E+00 -0.13145390352E+00  0.13145390352E+00  0.00000000000E+00 0. -1.
          2    1    1    2  501    0 -0.19702891837E+01 -0.11061965020E+01  0.35928569634E+02  0.35999553228E+02  0.25500000000E-02 0.  1.
         -2    1    1    2    0  501  0.19702891837E+01  0.11061965020E+01  0.13205425431E+02  0.13397349644E+02  0.25500000000E-02 0. -1.
<mgrwt>
<rscale>  0 0.22595833E+01</rscale>
<asrwt>0</asrwt>
<pdfrwt beam="1">0</pdfrwt>
<pdfrwt beam="2">0</pdfrwt>
<totfact> 0.20947938E+12</totfact>
</mgrwt>
</event>
<event>
 4    1  0.3064748E+006  0.4657637E+01  0.7546771E-02  0.2166830E+00
         22   -1    0    0    0    0  0.00000000000E+00  0.00000000000E+00  0.16926937215E+02  0.16926937215E+02  0.00000000000E+00 0. -1.
         22   -1    0    0    0    0 -0.00000000000E+00 -0.00000000000E+00 -0.13676319612E+01  0.13676319612E+01  0.00000000000E+00 0.  1.
          2    1    1    2  501    0 -0.46206735187E+01 -0.58561960174E+00  0.10073871350E+02  0.11098489292E+02  0.25500000000E-02 0. -1.
         -2    1    1    2    0  501  0.46206735187E+01  0.58561960174E+00  0.54854339038E+01  0.71960798842E+01  0.25500000000E-02 0.  1.
<mgrwt>
<rscale>  0 0.46576368E+01</rscale>
<asrwt>0</asrwt>
<pdfrwt beam="1">0</pdfrwt>
<pdfrwt beam="2">0</pdfrwt>
<totfact> 0.58229722E+11</totfact>
</mgrwt>
</event>
<event>
 4    1  0.3064748E+006  0.5671328E+01  0.7546771E-02  0.2050481E+00
         22   -1    0    0    0    0  0.00000000000E+00  0.00000000000E+00  0.99249184889E+01  0.99249184889E+01  0.00000000000E+00 0.  1.
         22   -1    0    0    0    0 -0.00000000000E+00 -0.00000000000E+00 -0.77849053564E+01  0.77849053564E+01  0.00000000000E+00 0. -1.
          2    1    1    2  501    0 -0.55312114637E+01  0.12528565136E+01  0.78352781905E+01  0.96724113087E+01  0.25500000000E-02 0.  1.
         -2    1    1    2    0  501  0.55312114637E+01 -0.12528565136E+01 -0.56952650580E+01  0.80374125365E+01  0.25500000000E-02 0. -1.
<mgrwt>
<rscale>  0 0.56713276E+01</rscale>
<asrwt>0</asrwt>
<pdfrwt beam="1">0</pdfrwt>
<pdfrwt beam="2">0</pdfrwt>
<totfact> 0.14577691E+11</totfact>
</mgrwt>
</event>
<event>
 4    1  0.3064748E+006  0.7080387E+01  0.7546771E-02  0.1934494E+00
         22   -1    0    0    0    0  0.00000000000E+00  0.00000000000E+00  0.69407419354E+02  0.69407419354E+02  0.00000000000E+00 0.  1.
         22   -1    0    0    0    0 -0.00000000000E+00 -0.00000000000E+00 -0.36569095413E+01  0.36569095413E+01  0.00000000000E+00 0. -1.
          2    1    1    2  501    0 -0.13746839312E+01 -0.69456550062E+01  0.65601382789E+02  0.65982371204E+02  0.25500000000E-02 0.  1.
         -2    1    1    2    0  501  0.13746839312E+01  0.69456550062E+01  0.14912702415E+00  0.70819576917E+01  0.25500000000E-02 0. -1.
<mgrwt>
<rscale>  0 0.70803874E+01</rscale>
<asrwt>0</asrwt>
<pdfrwt beam="1">0</pdfrwt>
<pdfrwt beam="2">0</pdfrwt>
<totfact> 0.30178294E+10</totfact>
</mgrwt>
</event>
<event>
 4    1  0.3064748E+006  0.2581201E+01  0.7546771E-02  0.2673779E+00
         22   -1    0    0    0    0  0.00000000000E+00  0.00000000000E+00  0.11652651300E+02  0.11652651300E+02  0.00000000000E+00 0. -1.
         22   -1    0    0    0    0 -0.00000000000E+00 -0.00000000000E+00 -0.57289277607E+00  0.57289277607E+00  0.00000000000E+00 0.  1.
          2    1    1    2  501    0  0.20833223606E+01  0.15239288005E+01  0.58108937540E+01  0.63583868843E+01  0.25500000000E-02 0. -1.
         -2    1    1    2    0  501 -0.20833223606E+01 -0.15239288005E+01  0.52688647697E+01  0.58671571916E+01  0.25500000000E-02 0.  1.
<mgrwt>
<rscale>  0 0.25812008E+01</rscale>
<asrwt>0</asrwt>
<pdfrwt beam="1">0</pdfrwt>
<pdfrwt beam="2">0</pdfrwt>
<totfact> 0.24822041E+12</totfact>
</mgrwt>
</event>
<event>
 4    1  0.3064748E+006  0.5739971E+01  0.7546771E-02  0.2043823E+00
         22   -1    0    0    0    0  0.00000000000E+00  0.00000000000E+00  0.40492016125E+02  0.40492016125E+02  0.00000000000E+00 0.  1.
         22   -1    0    0    0    0 -0.00000000000E+00 -0.00000000000E+00 -0.15219620830E+01  0.15219620830E+01  0.00000000000E+00 0. -1.
          2    1    1    2  501    0 -0.78102536713E-01 -0.57394389164E+01  0.33815717870E+02  0.34299417497E+02  0.25500000000E-02 0.  1.
         -2    1    1    2    0  501  0.78102536713E-01  0.57394389164E+01  0.51543361717E+01  0.77145607104E+01  0.25500000000E-02 0. -1.
<mgrwt>
<rscale>  0 0.57399709E+01</rscale>
<asrwt>0</asrwt>
<pdfrwt beam="1">0</pdfrwt>
<pdfrwt beam="2">0</pdfrwt>
<totfact> 0.17073306E+11</totfact>
</mgrwt>
</event>
<event>
 4    1  0.3064748E+006  0.2203277E+01  0.7546771E-02  0.2855815E+00
         22   -1    0    0    0    0  0.00000000000E+00  0.00000000000E+00  0.10023352679E+02  0.10023352679E+02  0.00000000000E+00 0. -1.
         22   -1    0    0    0    0 -0.00000000000E+00 -0.00000000000E+00 -0.33256169739E+01  0.33256169739E+01  0.00000000000E+00 0.  1.
          2    1    1    2  501    0  0.21754091543E+01  0.34931387347E+00  0.95182340406E+01  0.97699135577E+01  0.25500000000E-02 0. -1.
         -2    1    1    2    0  501 -0.21754091543E+01 -0.34931387347E+00 -0.28204983354E+01  0.35790560953E+01  0.25500000000E-02 0.  1.
<mgrwt>
<rscale>  0 0.22032775E+01</rscale>
<asrwt>0</asrwt>
<pdfrwt beam="1">0</pdfrwt>
<pdfrwt beam="2">0</pdfrwt>
<totfact> 0.39461418E+11</totfact>
</mgrwt>
</event>
<event>
 4    1  0.3064748E+006  0.2605447E+01  0.7546771E-02  0.2663791E+00
         22   -1    0    0    0    0  0.00000000000E+00  0.00000000000E+00  0.40687884604E+01  0.40687884604E+01  0.00000000000E+00 0. -1.
         22   -1    0    0    0    0 -0.00000000000E+00 -0.00000000000E+00 -0.16976171208E+01  0.16976171208E+01  0.00000000000E+00 0.  1.
          2    1    1    2  501    0 -0.90556250819E+00  0.24430111680E+01  0.15638522981E+01  0.30387476920E+01  0.25500000000E-02 0. -1.
         -2    1    1    2    0  501  0.90556250819E+00 -0.24430111680E+01  0.80731904156E+00  0.27276578892E+01  0.25500000000E-02 0.  1.
<mgrwt>
<rscale>  0 0.26054469E+01</rscale>
<asrwt>0</asrwt>
<pdfrwt beam="1">0</pdfrwt>
<pdfrwt beam="2">0</pdfrwt>
<totfact> 0.25276569E+12</totfact>
</mgrwt>
</event>
<event>
 4    1  0.3064748E+006  0.2228863E+01  0.7546771E-02  0.2841653E+00
         22   -1    0    0    0    0  0.00000000000E+00  0.00000000000E+00  0.62946050388E+00  0.62946050388E+00  0.00000000000E+00 0. -1.
         22   -1    0    0    0    0 -0.00000000000E+00 -0.00000000000E+00 -0.84520667295E+01  0.84520667295E+01  0.00000000000E+00 0.  1.
          2    1    1    2  501    0 -0.71453066181E+00 -0.21112243983E+01 -0.27426402393E+01  0.35341058999E+01  0.25500000000E-02 0. -1.
         -2    1    1    2    0  501  0.71453066181E+00  0.21112243983E+01 -0.50799659863E+01  0.55474213335E+01  0.25500000000E-02 0.  1.
<mgrwt>
<rscale>  0 0.22288627E+01</rscale>
<asrwt>0</asrwt>
<pdfrwt beam="1">0</pdfrwt>
<pdfrwt beam="2">0</pdfrwt>
<totfact> 0.32911656E+12</totfact>
</mgrwt>
</event>
<event>
 4    1  0.3064748E+006  0.2138773E+01  0.7546771E-02  0.2892962E+00
         22   -1    0    0    0    0  0.00000000000E+00  0.00000000000E+00  0.43146852112E+01  0.43146852112E+01  0.00000000000E+00 0. -1.
         22   -1    0    0    0    0 -0.00000000000E+00 -0.00000000000E+00 -0.13508496206E+01  0.13508496206E+01  0.00000000000E+00 0.  1.
          2    1    1    2  501    0  0.13262586630E+01 -0.16779097701E+01  0.27959501685E+01  0.35201828199E+01  0.25500000000E-02 0. -1.
         -2    1    1    2    0  501 -0.13262586630E+01  0.16779097701E+01  0.16788542210E+00  0.21453520120E+01  0.25500000000E-02 0.  1.
<mgrwt>
<rscale>  0 0.21387730E+01</rscale>
<asrwt>0</asrwt>
<pdfrwt beam="1">0</pdfrwt>
<pdfrwt beam="2">0</pdfrwt>
<totfact> 0.30681052E+12</totfact>
</mgrwt>
</event>
<event>
 4    1  0.3064748E+006  0.2895208E+01  0.7546771E-02  0.2556369E+00
         22   -1    0    0    0    0  0.00000000000E+00  0.00000000000E+00  0.32634336103E+02  0.32634336103E+02  0.00000000000E+00 0.  1.
         22   -1    0    0    0    0 -0.00000000000E+00 -0.00000000000E+00 -0.25794478632E+00  0.25794478632E+00  0.00000000000E+00 0. -1.
          2    1    1    2  501    0 -0.41074986304E+00 -0.28659219215E+01  0.15118280252E+02  0.15393005821E+02  0.25500000000E-02 0.  1.
         -2    1    1    2    0  501  0.41074986304E+00  0.28659219215E+01  0.17258111065E+02  0.17499275069E+02  0.25500000000E-02 0. -1.
<mgrwt>
<rscale>  0 0.28952082E+01</rscale>
<asrwt>0</asrwt>
<pdfrwt beam="1">0</pdfrwt>
<pdfrwt beam="2">0</pdfrwt>
<totfact> 0.16870588E+12</totfact>
</mgrwt>
</event>
<event>
 4    1  0.3064748E+006  0.2322606E+01  0.7546771E-02  0.2792310E+00
         22   -1    0    0    0    0  0.00000000000E+00  0.00000000000E+00  0.46799565683E+02  0.46799565683E+02  0.00000000000E+00 0. -1.
         22   -1    0    0    0    0 -0.00000000000E+00 -0.00000000000E+00 -0.12708790788E+00  0.12708790788E+00  0.00000000000E+00 0.  1.
          2    1    1    2  501    0 -0.68042680786E+00  0.22207003471E+01  0.30491782303E+02  0.30580112577E+02  0.25500000000E-02 0. -1.
         -2    1    1    2    0  501  0.68042680786E+00 -0.22207003471E+01  0.16180695472E+02  0.16346541014E+02  0.25500000000E-02 0.  1.
<mgrwt>
<rscale>  0 0.23226057E+01</rscale>
<asrwt>0</asrwt>
<pdfrwt beam="1">0</pdfrwt>
<pdfrwt beam="2">0</pdfrwt>
<totfact> 0.23267629E+12</totfact>
</mgrwt>
</event>
<event>
 4    1  0.3064748E+006  0.5707560E+01  0.7546771E-02  0.2046951E+00
         22   -1    0    0    0    0  0.00000000000E+00  0.00000000000E+00  0.49745702248E+02  0.49745702248E+02  0.00000000000E+00 0.  1.
         22   -1    0    0    0    0 -0.00000000000E+00 -0.00000000000E+00 -0.71922056986E+00  0.71922056986E+00  0.00000000000E+00 0. -1.
          2    1    1    2  501    0  0.54065903961E+01 -0.18289388313E+01  0.32061623548E+02  0.32565686666E+02  0.25500000000E-02 0.  1.
         -2    1    1    2    0  501 -0.54065903961E+01  0.18289388313E+01  0.16964858130E+02  0.17899236152E+02  0.25500000000E-02 0. -1.
<mgrwt>
<rscale>  0 0.57075602E+01</rscale>
<asrwt>0</asrwt>
<pdfrwt beam="1">0</pdfrwt>
<pdfrwt beam="2">0</pdfrwt>
<totfact> 0.30722650E+11</totfact>
</mgrwt>
</event>
<event>
 4    1  0.3064748E+006  0.2233316E+01  0.7546771E-02  0.2839220E+00
         22   -1    0    0    0    0  0.00000000000E+00  0.00000000000E+00  0.12336453676E+01  0.12336453676E+01  0.00000000000E+00 0.  1.
         22   -1    0    0    0    0 -0.00000000000E+00 -0.00000000000E+00 -0.10836015578E+02  0.10836015578E+02  0.00000000000E+00 0. -1.
          2    1    1    2  501    0 -0.12716598050E+01 -0.18359130549E+01 -0.23036416715E-01  0.22334351533E+01  0.25500000000E-02 0.  1.
         -2    1    1    2    0  501  0.12716598050E+01  0.18359130549E+01 -0.95793337932E+01  0.98362257919E+01  0.25500000000E-02 0. -1.
<mgrwt>
<rscale>  0 0.22333163E+01</rscale>
<asrwt>0</asrwt>
<pdfrwt beam="1">0</pdfrwt>
<pdfrwt beam="2">0</pdfrwt>
<totfact> 0.11321013E+12</totfact>
</mgrwt>
</event>
<event>
 4    1  0.3064748E+006  0.2659178E+01  0.7546771E-02  0.2642258E+00
         22   -1    0    0    0    0  0.00000000000E+00  0.00000000000E+00  0.30483913152E+02  0.30483913152E+02  0.00000000000E+00 0.  1.
         22   -1    0    0    0    0 -0.00000000000E+00 -0.00000000000E+00 -0.37538991345E+01  0.37538991345E+01  0.00000000000E+00 0. -1.
          2    1    1    2  501    0  0.20559344446E+01  0.16865221262E+01  0.29946562463E+02  0.30064394775E+02  0.25500000000E-02 0.  1.
         -2    1    1    2    0  501 -0.20559344446E+01 -0.16865221262E+01 -0.32165484455E+01  0.41734175118E+01  0.25500000000E-02 0. -1.
<mgrwt>
<rscale>  0 0.26591784E+01</rscale>
<asrwt>0</asrwt>
<pdfrwt beam="1">0</pdfrwt>
<pdfrwt beam="2">0</pdfrwt>
<totfact> 0.86154410E+10</totfact>
</mgrwt>
</event>
<event>
 4    1  0.3064748E+006  0.2377204E+01  0.7546771E-02  0.2765273E+00
         22   -1    0    0    0    0  0.00000000000E+00  0.00000000000E+00  0.10343630014E+02  0.10343630014E+02  0.00000000000E+00 0. -1.
         22   -1    0    0    0    0 -0.00000000000E+00 -0.00000000000E+00 -0.56898501549E+00  0.56898501549E+00  0.00000000000E+00 0.  1.
          2    1    1    2  501    0 -0.18857080015E+01 -0.14474805560E+01  0.59759258722E+01  0.64313910750E+01  0.25500000000E-02 0.  1.
         -2    1    1    2    0  501  0.18857080015E+01  0.14474805560E+01  0.37987191261E+01  0.44812239543E+01  0.25500000000E-02 0. -1.
<mgrwt>
<rscale>  0 0.23772045E+01</rscale>
<asrwt>0</asrwt>
<pdfrwt beam="1">0</pdfrwt>
<pdfrwt beam="2">0</pdfrwt>
<totfact> 0.28912059E+12</totfact>
</mgrwt>
</event>
<event>
 4    1  0.3064748E+006  0.2496796E+01  0.7546771E-02  0.2709944E+00
         22   -1    0    0    0    0  0.00000000000E+00  0.00000000000E+00  0.10666574112E+01  0.10666574112E+01  0.00000000000E+00 0.  1.
         22   -1    0    0    0    0 -0.00000000000E+00 -0.00000000000E+00 -0.13838969514E+02  0.13838969514E+02  0.00000000000E+00 0. -1.
          2    1    1    2  501    0  0.81054643495E+00 -0.23615666023E+01 -0.12050707196E+02  0.12306645878E+02  0.25500000000E-02 0. -1.
         -2    1    1    2    0  501 -0.81054643495E+00  0.23615666023E+01 -0.72160490696E+00  0.25989810473E+01  0.25500000000E-02 0.  1.
<mgrwt>
<rscale>  0 0.24967957E+01</rscale>
<asrwt>0</asrwt>
<pdfrwt beam="1">0</pdfrwt>
<pdfrwt beam="2">0</pdfrwt>
<totfact> 0.99212665E+11</totfact>
</mgrwt>
</event>
<event>
 4    1  0.3064748E+006  0.2994527E+01  0.7546771E-02  0.2523912E+00
         22   -1    0    0    0    0  0.00000000000E+00  0.00000000000E+00  0.33574577679E+01  0.33574577679E+01  0.00000000000E+00 0.  1.
         22   -1    0    0    0    0 -0.00000000000E+00 -0.00000000000E+00 -0.30076456014E+01  0.30076456014E+01  0.00000000000E+00 0. -1.
          2    1    1    2  501    0  0.24239607581E+01 -0.17582941349E+01  0.12399311977E+01  0.32410831367E+01  0.25500000000E-02 0.  1.
         -2    1    1    2    0  501 -0.24239607581E+01  0.17582941349E+01 -0.89011903124E+00  0.31240202326E+01  0.25500000000E-02 0. -1.
<mgrwt>
<rscale>  0 0.29945268E+01</rscale>
<asrwt>0</asrwt>
<pdfrwt beam="1">0</pdfrwt>
<pdfrwt beam="2">0</pdfrwt>
<totfact> 0.16309340E+12</totfact>
</mgrwt>
</event>
<event>
 4    1  0.3064748E+006  0.2098217E+01  0.7546771E-02  0.2917443E+00
         22   -1    0    0    0    0  0.00000000000E+00  0.00000000000E+00  0.56778593465E+02  0.56778593465E+02  0.00000000000E+00 0. -1.
         22   -1    0    0    0    0 -0.00000000000E+00 -0.00000000000E+00 -0.81590283992E-01  0.81590283992E-01  0.00000000000E+00 0.  1.
          2    1    1    2  501    0 -0.61612271446E+00 -0.20057173581E+01  0.34684173861E+02  0.34747581674E+02  0.25500000000E-02 0. -1.
         -2    1    1    2    0  501  0.61612271446E+00  0.20057173581E+01  0.22012829321E+02  0.22112602075E+02  0.25500000000E-02 0.  1.
<mgrwt>
<rscale>  0 0.20982173E+01</rscale>
<asrwt>0</asrwt>
<pdfrwt beam="1">0</pdfrwt>
<pdfrwt beam="2">0</pdfrwt>
<totfact> 0.29433814E+12</totfact>
</mgrwt>
</event>
<event>
 4    1  0.3064748E+006  0.2137724E+01  0.7546771E-02  0.2893583E+00
         22   -1    0    0    0    0  0.00000000000E+00  0.00000000000E+00  0.18719305263E+02  0.18719305263E+02  0.00000000000E+00 0.  1.
         22   -1    0    0    0    0 -0.00000000000E+00 -0.00000000000E+00 -0.48024341094E+00  0.48024341094E+00  0.00000000000E+00 0. -1.
          2    1    1    2  501    0 -0.13566618525E+00 -0.21334135851E+01  0.15850762137E+02  0.15994265399E+02  0.25500000000E-02 0.  1.
         -2    1    1    2    0  501  0.13566618525E+00  0.21334135851E+01  0.23882997151E+01  0.32052832746E+01  0.25500000000E-02 0. -1.
<mgrwt>
<rscale>  0 0.21377243E+01</rscale>
<asrwt>0</asrwt>
<pdfrwt beam="1">0</pdfrwt>
<pdfrwt beam="2">0</pdfrwt>
<totfact> 0.16910932E+12</totfact>
</mgrwt>
</event>
<event>
 4    1  0.3064748E+006  0.2029759E+01  0.7546771E-02  0.2960922E+00
         22   -1    0    0    0    0  0.00000000000E+00  0.00000000000E+00  0.90811784175E+02  0.90811784175E+02  0.00000000000E+00 0. -1.
         22   -1    0    0    0    0 -0.00000000000E+00 -0.00000000000E+00 -0.48001611927E-01  0.48001611927E-01  0.00000000000E+00 0.  1.
          2    1    1    2  501    0 -0.18046819877E+01 -0.92899871310E+00  0.56023665906E+02  0.56060423328E+02  0.25500000000E-02 0. -1.
         -2    1    1    2    0  501  0.18046819877E+01  0.92899871310E+00  0.34740116657E+02  0.34799362459E+02  0.25500000000E-02 0.  1.
<mgrwt>
<rscale>  0 0.20297591E+01</rscale>
<asrwt>0</asrwt>
<pdfrwt beam="1">0</pdfrwt>
<pdfrwt beam="2">0</pdfrwt>
<totfact> 0.27869933E+12</totfact>
</mgrwt>
</event>
<event>
 4    1  0.3064748E+006  0.2475167E+01  0.7546771E-02  0.2719580E+00
         22   -1    0    0    0    0  0.00000000000E+00  0.00000000000E+00  0.17681062542E+01  0.17681062542E+01  0.00000000000E+00 0. -1.
         22   -1    0    0    0    0 -0.00000000000E+00 -0.00000000000E+00 -0.41096116219E+01  0.41096116219E+01  0.00000000000E+00 0.  1.
          2    1    1    2  501    0 -0.11625882638E+01  0.21851391899E+01 -0.68023485555E-02  0.24751762613E+01  0.25500000000E-02 0. -1.
         -2    1    1    2    0  501  0.11625882638E+01 -0.21851391899E+01 -0.23347030192E+01  0.34025416148E+01  0.25500000000E-02 0.  1.
<mgrwt>
<rscale>  0 0.24751669E+01</rscale>
<asrwt>0</asrwt>
<pdfrwt beam="1">0</pdfrwt>
<pdfrwt beam="2">0</pdfrwt>
<totfact> 0.23835274E+12</totfact>
</mgrwt>
</event>
<event>
 4    1  0.3064748E+006  0.2161003E+01  0.7546771E-02  0.2879919E+00
         22   -1    0    0    0    0  0.00000000000E+00  0.00000000000E+00  0.28638028079E+02  0.28638028079E+02  0.00000000000E+00 0. -1.
         22   -1    0    0    0    0 -0.00000000000E+00 -0.00000000000E+00 -0.16363777732E+00  0.16363777732E+00  0.00000000000E+00 0.  1.
          2    1    1    2  501    0  0.31017609839E+00 -0.21386252312E+01  0.13387108991E+02  0.13560406363E+02  0.25500000000E-02 0. -1.
         -2    1    1    2    0  501 -0.31017609839E+00  0.21386252312E+01  0.15087281311E+02  0.15241259493E+02  0.25500000000E-02 0.  1.
<mgrwt>
<rscale>  0 0.21610029E+01</rscale>
<asrwt>0</asrwt>
<pdfrwt beam="1">0</pdfrwt>
<pdfrwt beam="2">0</pdfrwt>
<totfact> 0.33115969E+12</totfact>
</mgrwt>
</event>
<event>
 4    1  0.3064748E+006  0.3535364E+01  0.7546771E-02  0.2376011E+00
         22   -1    0    0    0    0  0.00000000000E+00  0.00000000000E+00  0.75419068188E+00  0.75419068188E+00  0.00000000000E+00 0. -1.
         22   -1    0    0    0    0 -0.00000000000E+00 -0.00000000000E+00 -0.47681045434E+02  0.47681045434E+02  0.00000000000E+00 0.  1.
          2    1    1    2  501    0  0.25419765093E+00  0.35262126972E+01 -0.39020858554E+01  0.52654603746E+01  0.25500000000E-02 0. -1.
         -2    1    1    2    0  501 -0.25419765093E+00 -0.35262126972E+01 -0.43024768896E+02  0.43169775741E+02  0.25500000000E-02 0.  1.
<mgrwt>
<rscale>  0 0.35353640E+01</rscale>
<asrwt>0</asrwt>
<pdfrwt beam="1">0</pdfrwt>
<pdfrwt beam="2">0</pdfrwt>
<totfact> 0.30779744E+11</totfact>
</mgrwt>
</event>
<event>
 4    1  0.3064748E+006  0.2152606E+01  0.7546771E-02  0.2884815E+00
         22   -1    0    0    0    0  0.00000000000E+00  0.00000000000E+00  0.14716265473E+02  0.14716265473E+02  0.00000000000E+00 0.  1.
         22   -1    0    0    0    0 -0.00000000000E+00 -0.00000000000E+00 -0.11878481218E+01  0.11878481218E+01  0.00000000000E+00 0. -1.
          2    1    1    2  501    0  0.37237297570E+00  0.21201516071E+01  0.13581324734E+02  0.13750857882E+02  0.25500000000E-02 0.  1.
         -2    1    1    2    0  501 -0.37237297570E+00 -0.21201516071E+01 -0.52907382610E-01  0.21532557125E+01  0.25500000000E-02 0. -1.
<mgrwt>
<rscale>  0 0.21526056E+01</rscale>
<asrwt>0</asrwt>
<pdfrwt beam="1">0</pdfrwt>
<pdfrwt beam="2">0</pdfrwt>
<totfact> 0.81335320E+11</totfact>
</mgrwt>
</event>
<event>
 4    1  0.3064748E+006  0.4316913E+01  0.7546771E-02  0.2220521E+00
         22   -1    0    0    0    0  0.00000000000E+00  0.00000000000E+00  0.96090096880E+01  0.96090096880E+01  0.00000000000E+00 0. -1.
         22   -1    0    0    0    0 -0.00000000000E+00 -0.00000000000E+00 -0.22003730079E+01  0.22003730079E+01  0.00000000000E+00 0.  1.
          2    1    1    2  501    0 -0.43689316513E+00  0.42947478642E+01  0.57378194805E+01  0.71804118091E+01  0.25500000000E-02 0.  1.
         -2    1    1    2    0  501  0.43689316513E+00 -0.42947478642E+01  0.16708171995E+01  0.46289708868E+01  0.25500000000E-02 0. -1.
<mgrwt>
<rscale>  0 0.43169134E+01</rscale>
<asrwt>0</asrwt>
<pdfrwt beam="1">0</pdfrwt>
<pdfrwt beam="2">0</pdfrwt>
<totfact> 0.67209678E+11</totfact>
</mgrwt>
</event>
<event>
 4    1  0.3064748E+006  0.3732739E+01  0.7546771E-02  0.2331491E+00
         22   -1    0    0    0    0  0.00000000000E+00  0.00000000000E+00  0.34523091475E+01  0.34523091475E+01  0.00000000000E+00 0.  1.
         22   -1    0    0    0    0 -0.00000000000E+00 -0.00000000000E+00 -0.11057780901E+02  0.11057780901E+02  0.00000000000E+00 0. -1.
          2    1    1    2  501    0  0.27178915126E+00  0.37228298996E+01  0.19786423671E+01  0.42247324085E+01  0.25500000000E-02 0.  1.
         -2    1    1    2    0  501 -0.27178915126E+00 -0.37228298996E+01 -0.95841141201E+01  0.10285357640E+02  0.25500000000E-02 0. -1.
<mgrwt>
<rscale>  0 0.37327387E+01</rscale>
<asrwt>0</asrwt>
<pdfrwt beam="1">0</pdfrwt>
<pdfrwt beam="2">0</pdfrwt>
<totfact> 0.33529718E+11</totfact>
</mgrwt>
</event>
<event>
 4    1  0.3064748E+006  0.2148607E+01  0.7546771E-02  0.2887160E+00
         22   -1    0    0    0    0  0.00000000000E+00  0.00000000000E+00  0.63613842120E+01  0.63613842120E+01  0.00000000000E+00 0. -1.
         22   -1    0    0    0    0 -0.00000000000E+00 -0.00000000000E+00 -0.74272683121E+00  0.74272683121E+00  0.00000000000E+00 0.  1.
          2    1    1    2  501    0  0.11048339111E+01 -0.18427819988E+01  0.22716473939E+01  0.31268021765E+01  0.25500000000E-02 0. -1.
         -2    1    1    2    0  501 -0.11048339111E+01  0.18427819988E+01  0.33470099869E+01  0.39773088667E+01  0.25500000000E-02 0.  1.
<mgrwt>
<rscale>  0 0.21486065E+01</rscale>
<asrwt>0</asrwt>
<pdfrwt beam="1">0</pdfrwt>
<pdfrwt beam="2">0</pdfrwt>
<totfact> 0.38339782E+12</totfact>
</mgrwt>
</event>
<event>
 4    1  0.3064748E+006  0.2066990E+01  0.7546771E-02  0.2936928E+00
         22   -1    0    0    0    0  0.00000000000E+00  0.00000000000E+00  0.70130620914E+01  0.70130620914E+01  0.00000000000E+00 0.  1.
         22   -1    0    0    0    0 -0.00000000000E+00 -0.00000000000E+00 -0.64456037529E+00  0.64456037529E+00  0.00000000000E+00 0. -1.
          2    1    1    2  501    0  0.20368980193E+01  0.35140774294E+00  0.40808777229E+01  0.45744956481E+01  0.25500000000E-02 0.  1.
         -2    1    1    2    0  501 -0.20368980193E+01 -0.35140774294E+00  0.22876239932E+01  0.30831268186E+01  0.25500000000E-02 0. -1.
<mgrwt>
<rscale>  0 0.20669899E+01</rscale>
<asrwt>0</asrwt>
<pdfrwt beam="1">0</pdfrwt>
<pdfrwt beam="2">0</pdfrwt>
<totfact> 0.40079527E+12</totfact>
</mgrwt>
</event>
<event>
 4    1  0.3064748E+006  0.2990481E+01  0.7546771E-02  0.2525197E+00
         22   -1    0    0    0    0  0.00000000000E+00  0.00000000000E+00  0.19756565883E+01  0.19756565883E+01  0.00000000000E+00 0. -1.
         22   -1    0    0    0    0 -0.00000000000E+00 -0.00000000000E+00 -0.45267354349E+01  0.45267354349E+01  0.00000000000E+00 0.  1.
          2    1    1    2  501    0  0.19439439262E+01  0.22724548921E+01 -0.12943369257E+01  0.32585708224E+01  0.25500000000E-02 0.  1.
         -2    1    1    2    0  501 -0.19439439262E+01 -0.22724548921E+01 -0.12567419209E+01  0.32438212008E+01  0.25500000000E-02 0. -1.
<mgrwt>
<rscale>  0 0.29904809E+01</rscale>
<asrwt>0</asrwt>
<pdfrwt beam="1">0</pdfrwt>
<pdfrwt beam="2">0</pdfrwt>
<totfact> 0.18707333E+12</totfact>
</mgrwt>
</event>
<event>
 4    1  0.3064748E+006  0.2241047E+01  0.7546771E-02  0.2835018E+00
         22   -1    0    0    0    0  0.00000000000E+00  0.00000000000E+00  0.49250216134E+00  0.49250216134E+00  0.00000000000E+00 0. -1.
         22   -1    0    0    0    0 -0.00000000000E+00 -0.00000000000E+00 -0.20233734684E+02  0.20233734684E+02  0.00000000000E+00 0.  1.
          2    1    1    2  501    0 -0.15768964839E+01 -0.15923820266E+01 -0.25720442990E+01  0.34114075421E+01  0.25500000000E-02 0. -1.
         -2    1    1    2    0  501  0.15768964839E+01  0.15923820266E+01 -0.17169188224E+02  0.17314829303E+02  0.25500000000E-02 0.  1.
<mgrwt>
<rscale>  0 0.22410465E+01</rscale>
<asrwt>0</asrwt>
<pdfrwt beam="1">0</pdfrwt>
<pdfrwt beam="2">0</pdfrwt>
<totfact> 0.14919215E+12</totfact>
</mgrwt>
</event>
<event>
 4    1  0.3064748E+006  0.2303337E+01  0.7546771E-02  0.2802141E+00
         22   -1    0    0    0    0  0.00000000000E+00  0.00000000000E+00  0.19577009784E+01  0.19577009784E+01  0.00000000000E+00 0. -1.
         22   -1    0    0    0    0 -0.00000000000E+00 -0.00000000000E+00 -0.34975299853E+01  0.34975299853E+01  0.00000000000E+00 0.  1.
          2    1    1    2  501    0 -0.23032627269E+01 -0.18281263494E-01  0.52439263622E+00  0.23622759223E+01  0.25500000000E-02 0. -1.
         -2    1    1    2    0  501  0.23032627269E+01  0.18281263494E-01 -0.20642216431E+01  0.30929550414E+01  0.25500000000E-02 0.  1.
<mgrwt>
<rscale>  0 0.23033367E+01</rscale>
<asrwt>0</asrwt>
<pdfrwt beam="1">0</pdfrwt>
<pdfrwt beam="2">0</pdfrwt>
<totfact> 0.25608834E+12</totfact>
</mgrwt>
</event>
<event>
 4    1  0.3064748E+006  0.2241948E+01  0.7546771E-02  0.2834530E+00
         22   -1    0    0    0    0  0.00000000000E+00  0.00000000000E+00  0.36900849590E+01  0.36900849590E+01  0.00000000000E+00 0. -1.
         22   -1    0    0    0    0 -0.00000000000E+00 -0.00000000000E+00 -0.14092866499E+01  0.14092866499E+01  0.00000000000E+00 0.  1.
          2    1    1    2  501    0  0.16460487142E+01  0.15221194737E+01  0.16068591928E+01  0.27583196025E+01  0.25500000000E-02 0. -1.
         -2    1    1    2    0  501 -0.16460487142E+01 -0.15221194737E+01  0.67393911626E+00  0.23410520064E+01  0.25500000000E-02 0.  1.
<mgrwt>
<rscale>  0 0.22419479E+01</rscale>
<asrwt>0</asrwt>
<pdfrwt beam="1">0</pdfrwt>
<pdfrwt beam="2">0</pdfrwt>
<totfact> 0.35128758E+12</totfact>
</mgrwt>
</event>
<event>
 4    1  0.3064748E+006  0.2048393E+01  0.7546771E-02  0.2948807E+00
         22   -1    0    0    0    0  0.00000000000E+00  0.00000000000E+00  0.11553458928E+02  0.11553458928E+02  0.00000000000E+00 0. -1.
         22   -1    0    0    0    0 -0.00000000000E+00 -0.00000000000E+00 -0.38354983106E+00  0.38354983106E+00  0.00000000000E+00 0.  1.
          2    1    1    2  501    0 -0.18490888984E+01 -0.88134910592E+00  0.69606281742E+01  0.72557740512E+01  0.25500000000E-02 0. -1.
         -2    1    1    2    0  501  0.18490888984E+01  0.88134910592E+00  0.42092809225E+01  0.46812347076E+01  0.25500000000E-02 0.  1.
<mgrwt>
<rscale>  0 0.20483927E+01</rscale>
<asrwt>0</asrwt>
<pdfrwt beam="1">0</pdfrwt>
<pdfrwt beam="2">0</pdfrwt>
<totfact> 0.39437689E+12</totfact>
</mgrwt>
</event>
<event>
 4    1  0.3064748E+006  0.2150244E+01  0.7546771E-02  0.2886199E+00
         22   -1    0    0    0    0  0.00000000000E+00  0.00000000000E+00  0.18820371581E+01  0.18820371581E+01  0.00000000000E+00 0.  1.
         22   -1    0    0    0    0 -0.00000000000E+00 -0.00000000000E+00 -0.32042057430E+01  0.32042057430E+01  0.00000000000E+00 0. -1.
          2    1    1    2  501    0  0.61955627272E+00 -0.20590510282E+01  0.56726636386E+00  0.22238117596E+01  0.25500000000E-02 0.  1.
         -2    1    1    2    0  501 -0.61955627272E+00  0.20590510282E+01 -0.18894349487E+01  0.28624311415E+01  0.25500000000E-02 0. -1.
<mgrwt>
<rscale>  0 0.21502436E+01</rscale>
<asrwt>0</asrwt>
<pdfrwt beam="1">0</pdfrwt>
<pdfrwt beam="2">0</pdfrwt>
<totfact> 0.29698427E+12</totfact>
</mgrwt>
</event>
<event>
 4    1  0.3064748E+006  0.2409786E+01  0.7546771E-02  0.2749690E+00
         22   -1    0    0    0    0  0.00000000000E+00  0.00000000000E+00  0.60692615379E+01  0.60692615379E+01  0.00000000000E+00 0.  1.
         22   -1    0    0    0    0 -0.00000000000E+00 -0.00000000000E+00 -0.15158200743E+01  0.15158200743E+01  0.00000000000E+00 0. -1.
          2    1    1    2  501    0 -0.19336235999E+01 -0.14381103588E+01  0.45798601091E+01  0.51751508917E+01  0.25500000000E-02 0.  1.
         -2    1    1    2    0  501  0.19336235999E+01  0.14381103588E+01 -0.26418645536E-01  0.24099307205E+01  0.25500000000E-02 0. -1.
<mgrwt>
<rscale>  0 0.24097859E+01</rscale>
<asrwt>0</asrwt>
<pdfrwt beam="1">0</pdfrwt>
<pdfrwt beam="2">0</pdfrwt>
<totfact> 0.17938435E+12</totfact>
</mgrwt>
</event>
<event>
 4    1  0.3064748E+006  0.2038469E+01  0.7546771E-02  0.2955233E+00
         22   -1    0    0    0    0  0.00000000000E+00  0.00000000000E+00  0.28281866840E+02  0.28281866840E+02  0.00000000000E+00 0.  1.
         22   -1    0    0    0    0 -0.00000000000E+00 -0.00000000000E+00 -0.54136487471E+00  0.54136487471E+00  0.00000000000E+00 0. -1.
          2    1    1    2  501    0 -0.14595750546E+01  0.14230213231E+01  0.26171726999E+02  0.26250993307E+02  0.25500000000E-02 0.  1.
         -2    1    1    2    0  501  0.14595750546E+01 -0.14230213231E+01  0.15687749667E+01  0.25722384074E+01  0.25500000000E-02 0. -1.
<mgrwt>
<rscale>  0 0.20384689E+01</rscale>
<asrwt>0</asrwt>
<pdfrwt beam="1">0</pdfrwt>
<pdfrwt beam="2">0</pdfrwt>
<totfact> 0.87957135E+11</totfact>
</mgrwt>
</event>
<event>
 4    1  0.3064748E+006  0.6332102E+01  0.7546771E-02  0.1991125E+00
         22   -1    0    0    0    0  0.00000000000E+00  0.00000000000E+00  0.14901185445E+01  0.14901185445E+01  0.00000000000E+00 0. -1.
         22   -1    0    0    0    0 -0.00000000000E+00 -0.00000000000E+00 -0.52624546194E+02  0.52624546194E+02  0.00000000000E+00 0.  1.
          2    1    1    2  501    0  0.23435081117E+01  0.58824723316E+01 -0.66524696631E+01  0.91842729774E+01  0.25500000000E-02 0. -1.
         -2    1    1    2    0  501 -0.23435081117E+01 -0.58824723316E+01 -0.44481957987E+02  0.44930391761E+02  0.25500000000E-02 0.  1.
<mgrwt>
<rscale>  0 0.63321021E+01</rscale>
<asrwt>0</asrwt>
<pdfrwt beam="1">0</pdfrwt>
<pdfrwt beam="2">0</pdfrwt>
<totfact> 0.12406412E+11</totfact>
</mgrwt>
</event>
<event>
 4    1  0.3064748E+006  0.2622836E+01  0.7546771E-02  0.2656734E+00
         22   -1    0    0    0    0  0.00000000000E+00  0.00000000000E+00  0.30094241327E+01  0.30094241327E+01  0.00000000000E+00 0.  1.
         22   -1    0    0    0    0 -0.00000000000E+00 -0.00000000000E+00 -0.24246120356E+01  0.24246120356E+01  0.00000000000E+00 0. -1.
          2    1    1    2  501    0  0.20453950608E+01  0.16418346093E+01  0.94225899949E+00  0.27869553932E+01  0.25500000000E-02 0.  1.
         -2    1    1    2    0  501 -0.20453950608E+01 -0.16418346093E+01 -0.35744690234E+00  0.26470807751E+01  0.25500000000E-02 0. -1.
<mgrwt>
<rscale>  0 0.26228359E+01</rscale>
<asrwt>0</asrwt>
<pdfrwt beam="1">0</pdfrwt>
<pdfrwt beam="2">0</pdfrwt>
<totfact> 0.23827740E+12</totfact>
</mgrwt>
</event>
<event>
 4    1  0.3064748E+006  0.2108347E+01  0.7546771E-02  0.2911243E+00
         22   -1    0    0    0    0  0.00000000000E+00  0.00000000000E+00  0.11523807287E+02  0.11523807287E+02  0.00000000000E+00 0. -1.
         22   -1    0    0    0    0 -0.00000000000E+00 -0.00000000000E+00 -0.40961286716E+00  0.40961286716E+00  0.00000000000E+00 0.  1.
          2    1    1    2  501    0 -0.21019716443E+01  0.16381497251E+00  0.69977294746E+01  0.73084433665E+01  0.25500000000E-02 0. -1.
         -2    1    1    2    0  501  0.21019716443E+01 -0.16381497251E+00  0.41164649448E+01  0.46249767872E+01  0.25500000000E-02 0.  1.
<mgrwt>
<rscale>  0 0.21083469E+01</rscale>
<asrwt>0</asrwt>
<pdfrwt beam="1">0</pdfrwt>
<pdfrwt beam="2">0</pdfrwt>
<totfact> 0.36740408E+12</totfact>
</mgrwt>
</event>
<event>
 4    1  0.3064748E+006  0.2372148E+01  0.7546771E-02  0.2767728E+00
         22   -1    0    0    0    0  0.00000000000E+00  0.00000000000E+00  0.42893124494E+00  0.42893124494E+00  0.00000000000E+00 0.  1.
         22   -1    0    0    0    0 -0.00000000000E+00 -0.00000000000E+00 -0.21359430528E+02  0.21359430528E+02  0.00000000000E+00 0. -1.
          2    1    1    2  501    0 -0.22516171168E+01 -0.74652669802E+00 -0.36985261479E+01  0.43938802807E+01  0.25500000000E-02 0.  1.
         -2    1    1    2    0  501  0.22516171168E+01  0.74652669802E+00 -0.17231973136E+02  0.17394481493E+02  0.25500000000E-02 0. -1.
<mgrwt>
<rscale>  0 0.23721484E+01</rscale>
<asrwt>0</asrwt>
<pdfrwt beam="1">0</pdfrwt>
<pdfrwt beam="2">0</pdfrwt>
<totfact> 0.16295676E+12</totfact>
</mgrwt>
</event>
<event>
 4    1  0.3064748E+006  0.2167975E+01  0.7546771E-02  0.2875882E+00
         22   -1    0    0    0    0  0.00000000000E+00  0.00000000000E+00  0.19720412273E+00  0.19720412273E+00  0.00000000000E+00 0. -1.
         22   -1    0    0    0    0 -0.00000000000E+00 -0.00000000000E+00 -0.26767594088E+02  0.26767594088E+02  0.00000000000E+00 0.  1.
          2    1    1    2  501    0  0.21153121209E-01  0.21678701258E+01 -0.88216427606E+01  0.90841342920E+01  0.25500000000E-02 0. -1.
         -2    1    1    2    0  501 -0.21153121209E-01 -0.21678701258E+01 -0.17748747204E+02  0.17880663918E+02  0.25500000000E-02 0.  1.
<mgrwt>
<rscale>  0 0.21679748E+01</rscale>
<asrwt>0</asrwt>
<pdfrwt beam="1">0</pdfrwt>
<pdfrwt beam="2">0</pdfrwt>
<totfact> 0.29306684E+12</totfact>
</mgrwt>
</event>
<event>
 4    1  0.3064748E+006  0.2321027E+01  0.7546771E-02  0.2793110E+00
         22   -1    0    0    0    0  0.00000000000E+00  0.00000000000E+00  0.26328078901E+00  0.26328078901E+00  0.00000000000E+00 0.  1.
         22   -1    0    0    0    0 -0.00000000000E+00 -0.00000000000E+00 -0.25050289620E+02  0.25050289620E+02  0.00000000000E+00 0. -1.
          2    1    1    2  501    0 -0.22978613231E+01 -0.32709475798E+00 -0.69765129781E+01  0.73524756019E+01  0.25500000000E-02 0.  1.
         -2    1    1    2    0  501  0.22978613231E+01  0.32709475798E+00 -0.17810495853E+02  0.17961094807E+02  0.25500000000E-02 0. -1.
<mgrwt>
<rscale>  0 0.23210265E+01</rscale>
<asrwt>0</asrwt>
<pdfrwt beam="1">0</pdfrwt>
<pdfrwt beam="2">0</pdfrwt>
<totfact> 0.23075112E+12</totfact>
</mgrwt>
</event>
<event>
 4    1  0.3064748E+006  0.2186089E+01  0.7546771E-02  0.2865508E+00
         22   -1    0    0    0    0  0.00000000000E+00  0.00000000000E+00  0.22618959862E+00  0.22618959862E+00  0.00000000000E+00 0.  1.
         22   -1    0    0    0    0 -0.00000000000E+00 -0.00000000000E+00 -0.21151735054E+02  0.21151735054E+02  0.00000000000E+00 0. -1.
          2    1    1    2  501    0 -0.20517717788E+01  0.75446081947E+00 -0.10106423462E+02  0.10340153783E+02  0.25500000000E-02 0. -1.
         -2    1    1    2    0  501  0.20517717788E+01 -0.75446081947E+00 -0.10819121994E+02  0.11037770870E+02  0.25500000000E-02 0.  1.
<mgrwt>
<rscale>  0 0.21860890E+01</rscale>
<asrwt>0</asrwt>
<pdfrwt beam="1">0</pdfrwt>
<pdfrwt beam="2">0</pdfrwt>
<totfact> 0.33817847E+12</totfact>
</mgrwt>
</event>
<event>
 4    1  0.3064748E+006  0.2674097E+01  0.7546771E-02  0.2636420E+00
         22   -1    0    0    0    0  0.00000000000E+00  0.00000000000E+00  0.24726033819E+01  0.24726033819E+01  0.00000000000E+00 0. -1.
         22   -1    0    0    0    0 -0.00000000000E+00 -0.00000000000E+00 -0.28957729966E+01  0.28957729966E+01  0.00000000000E+00 0.  1.
          2    1    1    2  501    0 -0.26672473775E+01 -0.19126462051E+00 -0.30832687332E+00  0.26918140150E+01  0.25500000000E-02 0.  1.
         -2    1    1    2    0  501  0.26672473775E+01  0.19126462051E+00 -0.11484274140E+00  0.26765623635E+01  0.25500000000E-02 0. -1.
<mgrwt>
<rscale>  0 0.26740975E+01</rscale>
<asrwt>0</asrwt>
<pdfrwt beam="1">0</pdfrwt>
<pdfrwt beam="2">0</pdfrwt>
<totfact> 0.24361872E+12</totfact>
</mgrwt>
</event>
<event>
 4    1  0.3064748E+006  0.2995712E+01  0.7546771E-02  0.2523537E+00
         22   -1    0    0    0    0  0.00000000000E+00  0.00000000000E+00  0.44791867578E+00  0.44791867578E+00  0.00000000000E+00 0. -1.
         22   -1    0    0    0    0 -0.00000000000E+00 -0.00000000000E+00 -0.20375677401E+02  0.20375677401E+02  0.00000000000E+00 0.  1.
          2    1    1    2  501    0 -0.24335978656E+01 -0.17469645251E+01 -0.11309121152E+02  0.11699167122E+02  0.25500000000E-02 0. -1.
         -2    1    1    2    0  501  0.24335978656E+01  0.17469645251E+01 -0.86186375731E+01  0.91244289544E+01  0.25500000000E-02 0.  1.
<mgrwt>
<rscale>  0 0.29957120E+01</rscale>
<asrwt>0</asrwt>
<pdfrwt beam="1">0</pdfrwt>
<pdfrwt beam="2">0</pdfrwt>
<totfact> 0.16461705E+12</totfact>
</mgrwt>
</event>
<event>
 4    1  0.3064748E+006  0.2057024E+01  0.7546771E-02  0.2943268E+00
         22   -1    0    0    0    0  0.00000000000E+00  0.00000000000E+00  0.22874010951E+00  0.22874010951E+00  0.00000000000E+00 0. -1.
         22   -1    0    0    0    0 -0.00000000000E+00 -0.00000000000E+00 -0.19762130208E+02  0.19762130208E+02  0.00000000000E+00 0.  1.
          2    1    1    2  501    0  0.82083271441E+00  0.18861530834E+01 -0.72391622989E+01  0.75257436238E+01  0.25500000000E-02 0. -1.
         -2    1    1    2    0  501 -0.82083271441E+00 -0.18861530834E+01 -0.12294227800E+02  0.12465126694E+02  0.25500000000E-02 0.  1.
<mgrwt>
<rscale>  0 0.20570237E+01</rscale>
<asrwt>0</asrwt>
<pdfrwt beam="1">0</pdfrwt>
<pdfrwt beam="2">0</pdfrwt>
<totfact> 0.36352159E+12</totfact>
</mgrwt>
</event>
<event>
 4    1  0.3064748E+006  0.2724499E+01  0.7546771E-02  0.2617132E+00
         22   -1    0    0    0    0  0.00000000000E+00  0.00000000000E+00  0.15841772864E+02  0.15841772864E+02  0.00000000000E+00 0.  1.
         22   -1    0    0    0    0 -0.00000000000E+00 -0.00000000000E+00 -0.39505312524E+01  0.39505312524E+01  0.00000000000E+00 0. -1.
          2    1    1    2  501    0  0.27239317266E+01  0.55531588947E-01  0.15236373741E+02  0.15478048297E+02  0.25500000000E-02 0.  1.
         -2    1    1    2    0  501 -0.27239317266E+01 -0.55531588947E-01 -0.33451321295E+01  0.43142558193E+01  0.25500000000E-02 0. -1.
<mgrwt>
<rscale>  0 0.27244989E+01</rscale>
<asrwt>0</asrwt>
<pdfrwt beam="1">0</pdfrwt>
<pdfrwt beam="2">0</pdfrwt>
<totfact> 0.18429839E+11</totfact>
</mgrwt>
</event>
<event>
 4    1  0.3064748E+006  0.2081536E+01  0.7546771E-02  0.2927781E+00
         22   -1    0    0    0    0  0.00000000000E+00  0.00000000000E+00  0.75660513309E+00  0.75660513309E+00  0.00000000000E+00 0. -1.
         22   -1    0    0    0    0 -0.00000000000E+00 -0.00000000000E+00 -0.11545304790E+02  0.11545304790E+02  0.00000000000E+00 0.  1.
          2    1    1    2  501    0  0.89594607617E+00  0.18788472894E+01 -0.10276622859E+01  0.23213967314E+01  0.25500000000E-02 0. -1.
         -2    1    1    2    0  501 -0.89594607617E+00 -0.18788472894E+01 -0.97610373710E+01  0.99805131917E+01  0.25500000000E-02 0.  1.
<mgrwt>
<rscale>  0 0.20815362E+01</rscale>
<asrwt>0</asrwt>
<pdfrwt beam="1">0</pdfrwt>
<pdfrwt beam="2">0</pdfrwt>
<totfact> 0.18311019E+12</totfact>
</mgrwt>
</event>
<event>
 4    1  0.3064748E+006  0.3115318E+01  0.7546771E-02  0.2486949E+00
         22   -1    0    0    0    0  0.00000000000E+00  0.00000000000E+00  0.24535067900E+02  0.24535067900E+02  0.00000000000E+00 0. -1.
         22   -1    0    0    0    0 -0.00000000000E+00 -0.00000000000E+00 -0.81803884904E+00  0.81803884904E+00  0.00000000000E+00 0.  1.
          2    1    1    2  501    0  0.30314175801E+01  0.71812708304E+00  0.20968429431E+02  0.21198590481E+02  0.25500000000E-02 0. -1.
         -2    1    1    2    0  501 -0.30314175801E+01 -0.71812708304E+00  0.27485996197E+01  0.41545162684E+01  0.25500000000E-02 0.  1.
<mgrwt>
<rscale>  0 0.31153179E+01</rscale>
<asrwt>0</asrwt>
<pdfrwt beam="1">0</pdfrwt>
<pdfrwt beam="2">0</pdfrwt>
<totfact> 0.65925449E+11</totfact>
</mgrwt>
</event>
<event>
 4    1  0.3064748E+006  0.2100768E+01  0.7546771E-02  0.2915877E+00
         22   -1    0    0    0    0  0.00000000000E+00  0.00000000000E+00  0.58780955396E+01  0.58780955396E+01  0.00000000000E+00 0. -1.
         22   -1    0    0    0    0 -0.00000000000E+00 -0.00000000000E+00 -0.93026951890E+00  0.93026951890E+00  0.00000000000E+00 0.  1.
          2    1    1    2  501    0  0.12974917063E+01  0.16521906635E+01  0.39691631790E+01  0.44908219248E+01  0.25500000000E-02 0. -1.
         -2    1    1    2    0  501 -0.12974917063E+01 -0.16521906635E+01  0.97866284174E+00  0.23175431337E+01  0.25500000000E-02 0.  1.
<mgrwt>
<rscale>  0 0.21007678E+01</rscale>
<asrwt>0</asrwt>
<pdfrwt beam="1">0</pdfrwt>
<pdfrwt beam="2">0</pdfrwt>
<totfact> 0.32599405E+12</totfact>
</mgrwt>
</event>
<event>
 4    1  0.3064748E+006  0.2141638E+01  0.7546771E-02  0.2891266E+00
         22   -1    0    0    0    0  0.00000000000E+00  0.00000000000E+00  0.12331959045E+03  0.12331959045E+03  0.00000000000E+00 0. -1.
         22   -1    0    0    0    0 -0.00000000000E+00 -0.00000000000E+00 -0.62979752542E-01  0.62979752542E-01  0.00000000000E+00 0.  1.
          2    1    1    2  501    0  0.18147851903E+01  0.11371725707E+01  0.10110333886E+03  0.10112601911E+03  0.25500000000E-02 0. -1.
         -2    1    1    2    0  501 -0.18147851903E+01 -0.11371725707E+01  0.22153271844E+02  0.22256551095E+02  0.25500000000E-02 0.  1.
<mgrwt>
<rscale>  0 0.21416380E+01</rscale>
<asrwt>0</asrwt>
<pdfrwt beam="1">0</pdfrwt>
<pdfrwt beam="2">0</pdfrwt>
<totfact> 0.13395273E+12</totfact>
</mgrwt>
</event>
<event>
 4    1  0.3064748E+006  0.2153058E+01  0.7546771E-02  0.2884551E+00
         22   -1    0    0    0    0  0.00000000000E+00  0.00000000000E+00  0.90798657607E+01  0.90798657607E+01  0.00000000000E+00 0. -1.
         22   -1    0    0    0    0 -0.00000000000E+00 -0.00000000000E+00 -0.28771394034E+01  0.28771394034E+01  0.00000000000E+00 0.  1.
          2    1    1    2  501    0  0.35184180060E-01 -0.21527690404E+01  0.85235452725E+01  0.87912731150E+01  0.25500000000E-02 0. -1.
         -2    1    1    2    0  501 -0.35184180060E-01  0.21527690404E+01 -0.23208189152E+01  0.31657320492E+01  0.25500000000E-02 0.  1.
<mgrwt>
<rscale>  0 0.21530581E+01</rscale>
<asrwt>0</asrwt>
<pdfrwt beam="1">0</pdfrwt>
<pdfrwt beam="2">0</pdfrwt>
<totfact> 0.52676272E+11</totfact>
</mgrwt>
</event>
<event>
 4    1  0.3064748E+006  0.2620900E+01  0.7546771E-02  0.2657515E+00
         22   -1    0    0    0    0  0.00000000000E+00  0.00000000000E+00  0.35136143087E+01  0.35136143087E+01  0.00000000000E+00 0. -1.
         22   -1    0    0    0    0 -0.00000000000E+00 -0.00000000000E+00 -0.29368331135E+01  0.29368331135E+01  0.00000000000E+00 0.  1.
          2    1    1    2  501    0 -0.17176999200E+01  0.19795497544E+01  0.21532195304E+01  0.33919715645E+01  0.25500000000E-02 0. -1.
         -2    1    1    2    0  501  0.17176999200E+01 -0.19795497544E+01 -0.15764383352E+01  0.30584758578E+01  0.25500000000E-02 0.  1.
<mgrwt>
<rscale>  0 0.26209000E+01</rscale>
<asrwt>0</asrwt>
<pdfrwt beam="1">0</pdfrwt>
<pdfrwt beam="2">0</pdfrwt>
<totfact> 0.15899164E+12</totfact>
</mgrwt>
</event>
<event>
 4    1  0.3064748E+006  0.3842892E+01  0.7546771E-02  0.2308371E+00
         22   -1    0    0    0    0  0.00000000000E+00  0.00000000000E+00  0.62347109820E+01  0.62347109820E+01  0.00000000000E+00 0.  1.
         22   -1    0    0    0    0 -0.00000000000E+00 -0.00000000000E+00 -0.63791831786E+01  0.63791831786E+01  0.00000000000E+00 0. -1.
          2    1    1    2  501    0  0.29866796488E+01 -0.24181722815E+01  0.49285463360E+01  0.62496710310E+01  0.25500000000E-02 0.  1.
         -2    1    1    2    0  501 -0.29866796488E+01  0.24181722815E+01 -0.50730185327E+01  0.63642231296E+01  0.25500000000E-02 0. -1.
<mgrwt>
<rscale>  0 0.38428920E+01</rscale>
<asrwt>0</asrwt>
<pdfrwt beam="1">0</pdfrwt>
<pdfrwt beam="2">0</pdfrwt>
<totfact> 0.32332227E+11</totfact>
</mgrwt>
</event>
<event>
 4    1  0.3064748E+006  0.2531533E+01  0.7546771E-02  0.2694789E+00
         22   -1    0    0    0    0  0.00000000000E+00  0.00000000000E+00  0.14776659283E+01  0.14776659283E+01  0.00000000000E+00 0.  1.
         22   -1    0    0    0    0 -0.00000000000E+00 -0.00000000000E+00 -0.68761458354E+01  0.68761458354E+01  0.00000000000E+00 0. -1.
          2    1    1    2  501    0 -0.15109882475E+01  0.20311497234E+01 -0.52374325931E+01  0.58171609358E+01  0.25500000000E-02 0. -1.
         -2    1    1    2    0  501  0.15109882475E+01 -0.20311497234E+01 -0.16104731405E+00  0.25366508279E+01  0.25500000000E-02 0.  1.
<mgrwt>
<rscale>  0 0.25315334E+01</rscale>
<asrwt>0</asrwt>
<pdfrwt beam="1">0</pdfrwt>
<pdfrwt beam="2">0</pdfrwt>
<totfact> 0.15916585E+12</totfact>
</mgrwt>
</event>
<event>
 4    1  0.3064748E+006  0.2792790E+01  0.7546771E-02  0.2592015E+00
         22   -1    0    0    0    0  0.00000000000E+00  0.00000000000E+00  0.58741765096E+00  0.58741765096E+00  0.00000000000E+00 0. -1.
         22   -1    0    0    0    0 -0.00000000000E+00 -0.00000000000E+00 -0.22409720715E+02  0.22409720715E+02  0.00000000000E+00 0.  1.
          2    1    1    2  501    0  0.27831821233E+01  0.23144751411E+00 -0.35710157757E+01  0.45334127162E+01  0.25500000000E-02 0. -1.
         -2    1    1    2    0  501 -0.27831821233E+01 -0.23144751411E+00 -0.18251287288E+02  0.18463725649E+02  0.25500000000E-02 0.  1.
<mgrwt>
<rscale>  0 0.27927902E+01</rscale>
<asrwt>0</asrwt>
<pdfrwt beam="1">0</pdfrwt>
<pdfrwt beam="2">0</pdfrwt>
<totfact> 0.10758561E+12</totfact>
</mgrwt>
</event>
<event>
 4    1  0.3064748E+006  0.2630455E+01  0.7546771E-02  0.2653669E+00
         22   -1    0    0    0    0  0.00000000000E+00  0.00000000000E+00  0.97096891784E+01  0.97096891784E+01  0.00000000000E+00 0. -1.
         22   -1    0    0    0    0 -0.00000000000E+00 -0.00000000000E+00 -0.73001251514E+00  0.73001251514E+00  0.00000000000E+00 0.  1.
          2    1    1    2  501    0 -0.21132858479E+01 -0.15663039378E+01  0.36840722571E+01  0.45267736854E+01  0.25500000000E-02 0.  1.
         -2    1    1    2    0  501  0.21132858479E+01  0.15663039378E+01  0.52956044061E+01  0.59129280081E+01  0.25500000000E-02 0. -1.
<mgrwt>
<rscale>  0 0.26304546E+01</rscale>
<asrwt>0</asrwt>
<pdfrwt beam="1">0</pdfrwt>
<pdfrwt beam="2">0</pdfrwt>
<totfact> 0.23531971E+12</totfact>
</mgrwt>
</event>
<event>
 4    1  0.3064748E+006  0.2091329E+01  0.7546771E-02  0.2921693E+00
         22   -1    0    0    0    0  0.00000000000E+00  0.00000000000E+00  0.10687939752E+00  0.10687939752E+00  0.00000000000E+00 0.  1.
         22   -1    0    0    0    0 -0.00000000000E+00 -0.00000000000E+00 -0.46675158851E+02  0.46675158851E+02  0.00000000000E+00 0. -1.
          2    1    1    2  501    0  0.41873327168E-01 -0.20909080276E+01 -0.15071524493E+02  0.15215929377E+02  0.25500000000E-02 0.  1.
         -2    1    1    2    0  501 -0.41873327168E-01  0.20909080276E+01 -0.31496754961E+02  0.31566108872E+02  0.25500000000E-02 0. -1.
<mgrwt>
<rscale>  0 0.20913288E+01</rscale>
<asrwt>0</asrwt>
<pdfrwt beam="1">0</pdfrwt>
<pdfrwt beam="2">0</pdfrwt>
<totfact> 0.28290027E+12</totfact>
</mgrwt>
</event>
<event>
 4    1  0.3064748E+006  0.2557698E+01  0.7546771E-02  0.2683627E+00
         22   -1    0    0    0    0  0.00000000000E+00  0.00000000000E+00  0.20381831688E+00  0.20381831688E+00  0.00000000000E+00 0.  1.
         22   -1    0    0    0    0 -0.00000000000E+00 -0.00000000000E+00 -0.33199263203E+02  0.33199263203E+02  0.00000000000E+00 0. -1.
          2    1    1    2  501    0 -0.12778887695E+01 -0.22155845419E+01 -0.19541871018E+02  0.19708539874E+02  0.25500000000E-02 0. -1.
         -2    1    1    2    0  501  0.12778887695E+01  0.22155845419E+01 -0.13453573869E+02  0.13694541647E+02  0.25500000000E-02 0.  1.
<mgrwt>
<rscale>  0 0.25576984E+01</rscale>
<asrwt>0</asrwt>
<pdfrwt beam="1">0</pdfrwt>
<pdfrwt beam="2">0</pdfrwt>
<totfact> 0.21471568E+12</totfact>
</mgrwt>
</event>
<event>
 4    1  0.3064748E+006  0.2401403E+01  0.7546771E-02  0.2753662E+00
         22   -1    0    0    0    0  0.00000000000E+00  0.00000000000E+00  0.74730951998E+02  0.74730951998E+02  0.00000000000E+00 0. -1.
         22   -1    0    0    0    0 -0.00000000000E+00 -0.00000000000E+00 -0.11393632607E+00  0.11393632607E+00  0.00000000000E+00 0.  1.
          2    1    1    2  501    0 -0.37402383646E+00 -0.23720949027E+01  0.58567670516E+02  0.58616881223E+02  0.25500000000E-02 0. -1.
         -2    1    1    2    0  501  0.37402383646E+00  0.23720949027E+01  0.16049345155E+02  0.16228007101E+02  0.25500000000E-02 0.  1.
<mgrwt>
<rscale>  0 0.24014026E+01</rscale>
<asrwt>0</asrwt>
<pdfrwt beam="1">0</pdfrwt>
<pdfrwt beam="2">0</pdfrwt>
<totfact> 0.14045274E+12</totfact>
</mgrwt>
</event>
<event>
 4    1  0.3064748E+006  0.3682117E+01  0.7546771E-02  0.2342515E+00
         22   -1    0    0    0    0  0.00000000000E+00  0.00000000000E+00  0.10763050265E+01  0.10763050265E+01  0.00000000000E+00 0. -1.
         22   -1    0    0    0    0 -0.00000000000E+00 -0.00000000000E+00 -0.13057364382E+02  0.13057364382E+02  0.00000000000E+00 0.  1.
          2    1    1    2  501    0  0.16301609383E+01 -0.33015985969E+01 -0.46632917801E+01  0.59417400405E+01  0.25500000000E-02 0. -1.
         -2    1    1    2    0  501 -0.16301609383E+01  0.33015985969E+01 -0.73177675754E+01  0.81919293680E+01  0.25500000000E-02 0.  1.
<mgrwt>
<rscale>  0 0.36821168E+01</rscale>
<asrwt>0</asrwt>
<pdfrwt beam="1">0</pdfrwt>
<pdfrwt beam="2">0</pdfrwt>
<totfact> 0.10544750E+12</totfact>
</mgrwt>
</event>
<event>
 4    1  0.3064748E+006  0.2142895E+01  0.7546771E-02  0.2890523E+00
         22   -1    0    0    0    0  0.00000000000E+00  0.00000000000E+00  0.29733031815E+01  0.29733031815E+01  0.00000000000E+00 0. -1.
         22   -1    0    0    0    0 -0.00000000000E+00 -0.00000000000E+00 -0.22486995393E+01  0.22486995393E+01  0.00000000000E+00 0.  1.
          2    1    1    2  501    0  0.76418796124E+00 -0.20020014988E+01  0.18235263090E+01  0.28137604631E+01  0.25500000000E-02 0. -1.
         -2    1    1    2    0  501 -0.76418796124E+00  0.20020014988E+01 -0.10989226668E+01  0.24082422577E+01  0.25500000000E-02 0.  1.
<mgrwt>
<rscale>  0 0.21428952E+01</rscale>
<asrwt>0</asrwt>
<pdfrwt beam="1">0</pdfrwt>
<pdfrwt beam="2">0</pdfrwt>
<totfact> 0.26373829E+12</totfact>
</mgrwt>
</event>
<event>
 4    1  0.3064748E+006  0.2241241E+01  0.7546771E-02  0.2834913E+00
         22   -1    0    0    0    0  0.00000000000E+00  0.00000000000E+00  0.13484135717E+01  0.13484135717E+01  0.00000000000E+00 0.  1.
         22   -1    0    0    0    0 -0.00000000000E+00 -0.00000000000E+00 -0.37448085412E+01  0.37448085412E+01  0.00000000000E+00 0. -1.
          2    1    1    2  501    0 -0.20311963968E+01  0.94730949172E+00 -0.10140962822E+01  0.24599902130E+01  0.25500000000E-02 0.  1.
         -2    1    1    2    0  501  0.20311963968E+01 -0.94730949172E+00 -0.13822986873E+01  0.26332319000E+01  0.25500000000E-02 0. -1.
<mgrwt>
<rscale>  0 0.22412409E+01</rscale>
<asrwt>0</asrwt>
<pdfrwt beam="1">0</pdfrwt>
<pdfrwt beam="2">0</pdfrwt>
<totfact> 0.36323061E+12</totfact>
</mgrwt>
</event>
<event>
 4    1  0.3064748E+006  0.2402415E+01  0.7546771E-02  0.2753180E+00
         22   -1    0    0    0    0  0.00000000000E+00  0.00000000000E+00  0.13579540780E+01  0.13579540780E+01  0.00000000000E+00 0. -1.
         22   -1    0    0    0    0 -0.00000000000E+00 -0.00000000000E+00 -0.52242395685E+01  0.52242395685E+01  0.00000000000E+00 0.  1.
          2    1    1    2  501    0  0.23271183078E+01  0.59675288254E+00 -0.33542063800E+01  0.41258090798E+01  0.25500000000E-02 0.  1.
         -2    1    1    2    0  501 -0.23271183078E+01 -0.59675288254E+00 -0.51207911055E+00  0.24563845667E+01  0.25500000000E-02 0. -1.
<mgrwt>
<rscale>  0 0.24024155E+01</rscale>
<asrwt>0</asrwt>
<pdfrwt beam="1">0</pdfrwt>
<pdfrwt beam="2">0</pdfrwt>
<totfact> 0.24325167E+12</totfact>
</mgrwt>
</event>
<event>
 4    1  0.3064748E+006  0.2455240E+01  0.7546771E-02  0.2728598E+00
         22   -1    0    0    0    0  0.00000000000E+00  0.00000000000E+00  0.26913698027E+00  0.26913698027E+00  0.00000000000E+00 0. -1.
         22   -1    0    0    0    0 -0.00000000000E+00 -0.00000000000E+00 -0.22733741670E+02  0.22733741670E+02  0.00000000000E+00 0.  1.
          2    1    1    2  501    0  0.24452295891E+01 -0.22146861233E+00 -0.98351458942E+01  0.10136976736E+02  0.25500000000E-02 0.  1.
         -2    1    1    2    0  501 -0.24452295891E+01  0.22146861233E+00 -0.12629458796E+02  0.12865901914E+02  0.25500000000E-02 0. -1.
<mgrwt>
<rscale>  0 0.24552398E+01</rscale>
<asrwt>0</asrwt>
<pdfrwt beam="1">0</pdfrwt>
<pdfrwt beam="2">0</pdfrwt>
<totfact> 0.25437824E+12</totfact>
</mgrwt>
</event>
<event>
 4    1  0.3064748E+006  0.2358460E+01  0.7546771E-02  0.2774422E+00
         22   -1    0    0    0    0  0.00000000000E+00  0.00000000000E+00  0.62451964456E+00  0.62451964456E+00  0.00000000000E+00 0.  1.
         22   -1    0    0    0    0 -0.00000000000E+00 -0.00000000000E+00 -0.90215180137E+01  0.90215180137E+01  0.00000000000E+00 0. -1.
          2    1    1    2  501    0  0.61206965082E+00 -0.22776517778E+01 -0.36541051024E+01  0.43491168621E+01  0.25500000000E-02 0.  1.
         -2    1    1    2    0  501 -0.61206965082E+00  0.22776517778E+01 -0.47428932667E+01  0.52969207961E+01  0.25500000000E-02 0. -1.
<mgrwt>
<rscale>  0 0.23584600E+01</rscale>
<asrwt>0</asrwt>
<pdfrwt beam="1">0</pdfrwt>
<pdfrwt beam="2">0</pdfrwt>
<totfact> 0.30698241E+12</totfact>
</mgrwt>
</event>
<event>
 4    1  0.3064748E+006  0.2179020E+01  0.7546771E-02  0.2869536E+00
         22   -1    0    0    0    0  0.00000000000E+00  0.00000000000E+00  0.19657380898E+02  0.19657380898E+02  0.00000000000E+00 0. -1.
         22   -1    0    0    0    0 -0.00000000000E+00 -0.00000000000E+00 -0.24508624566E+00  0.24508624566E+00  0.00000000000E+00 0.  1.
          2    1    1    2  501    0  0.15691007854E+01  0.15119669089E+01  0.10902447767E+02  0.11118070652E+02  0.25500000000E-02 0. -1.
         -2    1    1    2    0  501 -0.15691007854E+01 -0.15119669089E+01  0.85098468853E+01  0.87843964917E+01  0.25500000000E-02 0.  1.
<mgrwt>
<rscale>  0 0.21790199E+01</rscale>
<asrwt>0</asrwt>
<pdfrwt beam="1">0</pdfrwt>
<pdfrwt beam="2">0</pdfrwt>
<totfact> 0.33877584E+12</totfact>
</mgrwt>
</event>
<event>
 4    1  0.3064748E+006  0.3404723E+01  0.7546771E-02  0.2407932E+00
         22   -1    0    0    0    0  0.00000000000E+00  0.00000000000E+00  0.65876817563E+01  0.65876817563E+01  0.00000000000E+00 0.  1.
         22   -1    0    0    0    0 -0.00000000000E+00 -0.00000000000E+00 -0.11805961259E+02  0.11805961259E+02  0.00000000000E+00 0. -1.
          2    1    1    2  501    0 -0.15911425017E+01 -0.30100498775E+01  0.58746515968E+01  0.67899685280E+01  0.25500000000E-02 0.  1.
         -2    1    1    2    0  501  0.15911425017E+01  0.30100498775E+01 -0.11092931100E+02  0.11603674488E+02  0.25500000000E-02 0. -1.
<mgrwt>
<rscale>  0 0.34047234E+01</rscale>
<asrwt>0</asrwt>
<pdfrwt beam="1">0</pdfrwt>
<pdfrwt beam="2">0</pdfrwt>
<totfact> 0.14419655E+11</totfact>
</mgrwt>
</event>
<event>
 4    1  0.3064748E+006  0.2098563E+01  0.7546771E-02  0.2917231E+00
         22   -1    0    0    0    0  0.00000000000E+00  0.00000000000E+00  0.21395521536E+01  0.21395521536E+01  0.00000000000E+00 0.  1.
         22   -1    0    0    0    0 -0.00000000000E+00 -0.00000000000E+00 -0.21324248289E+01  0.21324248289E+01  0.00000000000E+00 0. -1.
          2    1    1    2  501    0  0.23024522305E+00 -0.20858925069E+01  0.40164362996E+00  0.21366526440E+01  0.25500000000E-02 0.  1.
         -2    1    1    2    0  501 -0.23024522305E+00  0.20858925069E+01 -0.39451630529E+00  0.21353243385E+01  0.25500000000E-02 0. -1.
<mgrwt>
<rscale>  0 0.20985631E+01</rscale>
<asrwt>0</asrwt>
<pdfrwt beam="1">0</pdfrwt>
<pdfrwt beam="2">0</pdfrwt>
<totfact> 0.41132730E+12</totfact>
</mgrwt>
</event>
<event>
 4    1  0.3064748E+006  0.2602598E+01  0.7546771E-02  0.2664956E+00
         22   -1    0    0    0    0  0.00000000000E+00  0.00000000000E+00  0.29440748777E+01  0.29440748777E+01  0.00000000000E+00 0.  1.
         22   -1    0    0    0    0 -0.00000000000E+00 -0.00000000000E+00 -0.30200596157E+01  0.30200596157E+01  0.00000000000E+00 0. -1.
          2    1    1    2  501    0  0.25356864178E+01 -0.58634703748E+00  0.14173806017E+01  0.29635253889E+01  0.25500000000E-02 0.  1.
         -2    1    1    2    0  501 -0.25356864178E+01  0.58634703748E+00 -0.14933653397E+01  0.30006091045E+01  0.25500000000E-02 0. -1.
<mgrwt>
<rscale>  0 0.26025977E+01</rscale>
<asrwt>0</asrwt>
<pdfrwt beam="1">0</pdfrwt>
<pdfrwt beam="2">0</pdfrwt>
<totfact> 0.18926751E+12</totfact>
</mgrwt>
</event>
<event>
 4    1  0.3064748E+006  0.3667152E+01  0.7546771E-02  0.2345824E+00
         22   -1    0    0    0    0  0.00000000000E+00  0.00000000000E+00  0.60483820744E+01  0.60483820744E+01  0.00000000000E+00 0.  1.
         22   -1    0    0    0    0 -0.00000000000E+00 -0.00000000000E+00 -0.35748992720E+01  0.35748992720E+01  0.00000000000E+00 0. -1.
          2    1    1    2  501    0 -0.17492366549E+01 -0.32230685379E+01  0.41952191110E+01  0.55720615185E+01  0.25500000000E-02 0.  1.
         -2    1    1    2    0  501  0.17492366549E+01  0.32230685379E+01 -0.17217363085E+01  0.40512198279E+01  0.25500000000E-02 0. -1.
<mgrwt>
<rscale>  0 0.36671523E+01</rscale>
<asrwt>0</asrwt>
<pdfrwt beam="1">0</pdfrwt>
<pdfrwt beam="2">0</pdfrwt>
<totfact> 0.66491213E+11</totfact>
</mgrwt>
</event>
<event>
 4    1  0.3064748E+006  0.3219948E+01  0.7546771E-02  0.2456934E+00
         22   -1    0    0    0    0  0.00000000000E+00  0.00000000000E+00  0.82828622467E+00  0.82828622467E+00  0.00000000000E+00 0.  1.
         22   -1    0    0    0    0 -0.00000000000E+00 -0.00000000000E+00 -0.15230449756E+02  0.15230449756E+02  0.00000000000E+00 0. -1.
          2    1    1    2  501    0  0.69507735853E+00  0.31440302669E+01 -0.38122766460E+01  0.49901421404E+01  0.25500000000E-02 0.  1.
         -2    1    1    2    0  501 -0.69507735853E+00 -0.31440302669E+01 -0.10589886885E+02  0.11068593840E+02  0.25500000000E-02 0. -1.
<mgrwt>
<rscale>  0 0.32199480E+01</rscale>
<asrwt>0</asrwt>
<pdfrwt beam="1">0</pdfrwt>
<pdfrwt beam="2">0</pdfrwt>
<totfact> 0.11769259E+12</totfact>
</mgrwt>
</event>
<event>
 4    1  0.3064748E+006  0.2313241E+01  0.7546771E-02  0.2797068E+00
         22   -1    0    0    0    0  0.00000000000E+00  0.00000000000E+00  0.89406259180E+00  0.89406259180E+00  0.00000000000E+00 0.  1.
         22   -1    0    0    0    0 -0.00000000000E+00 -0.00000000000E+00 -0.87794373120E+01  0.87794373120E+01  0.00000000000E+00 0. -1.
          2    1    1    2  501    0 -0.17804689095E+01 -0.14768237935E+01 -0.12139794149E+01  0.26124376695E+01  0.25500000000E-02 0.  1.
         -2    1    1    2    0  501  0.17804689095E+01  0.14768237935E+01 -0.66713953053E+01  0.70610622343E+01  0.25500000000E-02 0. -1.
<mgrwt>
<rscale>  0 0.23132411E+01</rscale>
<asrwt>0</asrwt>
<pdfrwt beam="1">0</pdfrwt>
<pdfrwt beam="2">0</pdfrwt>
<totfact> 0.21100250E+12</totfact>
</mgrwt>
</event>
<event>
 4    1  0.3064748E+006  0.2094146E+01  0.7546771E-02  0.2919952E+00
         22   -1    0    0    0    0  0.00000000000E+00  0.00000000000E+00  0.24805462273E+01  0.24805462273E+01  0.00000000000E+00 0.  1.
         22   -1    0    0    0    0 -0.00000000000E+00 -0.00000000000E+00 -0.39182231154E+01  0.39182231154E+01  0.00000000000E+00 0. -1.
          2    1    1    2  501    0 -0.28675149450E+00  0.20744191497E+01  0.16512801317E+01  0.26668659141E+01  0.25500000000E-02 0.  1.
         -2    1    1    2    0  501  0.28675149450E+00 -0.20744191497E+01 -0.30889570197E+01  0.37319034286E+01  0.25500000000E-02 0. -1.
<mgrwt>
<rscale>  0 0.20941461E+01</rscale>
<asrwt>0</asrwt>
<pdfrwt beam="1">0</pdfrwt>
<pdfrwt beam="2">0</pdfrwt>
<totfact> 0.17029483E+12</totfact>
</mgrwt>
</event>
<event>
 4    1  0.3064748E+006  0.2059094E+01  0.7546771E-02  0.2941947E+00
         22   -1    0    0    0    0  0.00000000000E+00  0.00000000000E+00  0.98864656780E+02  0.98864656780E+02  0.00000000000E+00 0. -1.
         22   -1    0    0    0    0 -0.00000000000E+00 -0.00000000000E+00 -0.10858581929E+00  0.10858581929E+00  0.00000000000E+00 0.  1.
          2    1    1    2  501    0 -0.13886873425E+01  0.15203312636E+01  0.87871303913E+02  0.87895426033E+02  0.25500000000E-02 0. -1.
         -2    1    1    2    0  501  0.13886873425E+01 -0.15203312636E+01  0.10884767047E+02  0.11077816566E+02  0.25500000000E-02 0.  1.
<mgrwt>
<rscale>  0 0.20590935E+01</rscale>
<asrwt>0</asrwt>
<pdfrwt beam="1">0</pdfrwt>
<pdfrwt beam="2">0</pdfrwt>
<totfact> 0.10053449E+12</totfact>
</mgrwt>
</event>
<event>
 4    1  0.3064748E+006  0.4040909E+01  0.7546771E-02  0.2269542E+00
         22   -1    0    0    0    0  0.00000000000E+00  0.00000000000E+00  0.12642692077E+02  0.12642692077E+02  0.00000000000E+00 0. -1.
         22   -1    0    0    0    0 -0.00000000000E+00 -0.00000000000E+00 -0.12940301824E+01  0.12940301824E+01  0.00000000000E+00 0.  1.
          2    1    1    2  501    0 -0.39858003082E+01 -0.66508546115E+00  0.53706271137E+01  0.67210553386E+01  0.25500000000E-02 0.  1.
         -2    1    1    2    0  501  0.39858003082E+01  0.66508546115E+00  0.59780347809E+01  0.72156669208E+01  0.25500000000E-02 0. -1.
<mgrwt>
<rscale>  0 0.40409095E+01</rscale>
<asrwt>0</asrwt>
<pdfrwt beam="1">0</pdfrwt>
<pdfrwt beam="2">0</pdfrwt>
<totfact> 0.88824422E+11</totfact>
</mgrwt>
</event>
<event>
 4    1  0.3064748E+006  0.2180830E+01  0.7546771E-02  0.2868502E+00
         22   -1    0    0    0    0  0.00000000000E+00  0.00000000000E+00  0.68971538755E+02  0.68971538755E+02  0.00000000000E+00 0. -1.
         22   -1    0    0    0    0 -0.00000000000E+00 -0.00000000000E+00 -0.73195919356E-01  0.73195919356E-01  0.00000000000E+00 0.  1.
          2    1    1    2  501    0  0.19452426705E+01  0.98592331921E+00  0.42757657318E+02  0.42813237201E+02  0.25500000000E-02 0. -1.
         -2    1    1    2    0  501 -0.19452426705E+01 -0.98592331921E+00  0.26140685518E+02  0.26231497474E+02  0.25500000000E-02 0.  1.
<mgrwt>
<rscale>  0 0.21808302E+01</rscale>
<asrwt>0</asrwt>
<pdfrwt beam="1">0</pdfrwt>
<pdfrwt beam="2">0</pdfrwt>
<totfact> 0.25551937E+12</totfact>
</mgrwt>
</event>
<event>
 4    1  0.3064748E+006  0.2953555E+01  0.7546771E-02  0.2537064E+00
         22   -1    0    0    0    0  0.00000000000E+00  0.00000000000E+00  0.42079245379E+01  0.42079245379E+01  0.00000000000E+00 0. -1.
         22   -1    0    0    0    0 -0.00000000000E+00 -0.00000000000E+00 -0.22164041555E+01  0.22164041555E+01  0.00000000000E+00 0.  1.
          2    1    1    2  501    0  0.20441499323E+01  0.21318844872E+01  0.18125095214E+01  0.34653539040E+01  0.25500000000E-02 0. -1.
         -2    1    1    2    0  501 -0.20441499323E+01 -0.21318844872E+01  0.17901086103E+00  0.29589747893E+01  0.25500000000E-02 0.  1.
<mgrwt>
<rscale>  0 0.29535550E+01</rscale>
<asrwt>0</asrwt>
<pdfrwt beam="1">0</pdfrwt>
<pdfrwt beam="2">0</pdfrwt>
<totfact> 0.17847009E+12</totfact>
</mgrwt>
</event>
<event>
 4    1  0.3064748E+006  0.2054126E+01  0.7546771E-02  0.2945123E+00
         22   -1    0    0    0    0  0.00000000000E+00  0.00000000000E+00  0.59098702767E-01  0.59098702767E-01  0.00000000000E+00 0. -1.
         22   -1    0    0    0    0 -0.00000000000E+00 -0.00000000000E+00 -0.95032396622E+02  0.95032396622E+02  0.00000000000E+00 0.  1.
          2    1    1    2  501    0  0.20324250398E+01  0.29778718172E+00 -0.23774948386E+02  0.23863520403E+02  0.25500000000E-02 0. -1.
         -2    1    1    2    0  501 -0.20324250398E+01 -0.29778718172E+00 -0.71198349533E+02  0.71227974922E+02  0.25500000000E-02 0.  1.
<mgrwt>
<rscale>  0 0.20541264E+01</rscale>
<asrwt>0</asrwt>
<pdfrwt beam="1">0</pdfrwt>
<pdfrwt beam="2">0</pdfrwt>
<totfact> 0.20807085E+12</totfact>
</mgrwt>
</event>
<event>
 4    1  0.3064748E+006  0.3086610E+01  0.7546771E-02  0.2495499E+00
         22   -1    0    0    0    0  0.00000000000E+00  0.00000000000E+00  0.57035144397E+01  0.57035144397E+01  0.00000000000E+00 0.  1.
         22   -1    0    0    0    0 -0.00000000000E+00 -0.00000000000E+00 -0.30266377946E+01  0.30266377946E+01  0.00000000000E+00 0. -1.
          2    1    1    2  501    0  0.72996942127E+00  0.29990498224E+01  0.42604315395E+01  0.52610301841E+01  0.25500000000E-02 0.  1.
         -2    1    1    2    0  501 -0.72996942127E+00 -0.29990498224E+01 -0.15835548943E+01  0.34691220502E+01  0.25500000000E-02 0. -1.
<mgrwt>
<rscale>  0 0.30866101E+01</rscale>
<asrwt>0</asrwt>
<pdfrwt beam="1">0</pdfrwt>
<pdfrwt beam="2">0</pdfrwt>
<totfact> 0.86646206E+11</totfact>
</mgrwt>
</event>
<event>
 4    1  0.3064748E+006  0.3584283E+01  0.7546771E-02  0.2364581E+00
         22   -1    0    0    0    0  0.00000000000E+00  0.00000000000E+00  0.51354702316E+01  0.51354702316E+01  0.00000000000E+00 0.  1.
         22   -1    0    0    0    0 -0.00000000000E+00 -0.00000000000E+00 -0.32372719294E+01  0.32372719294E+01  0.00000000000E+00 0. -1.
          2    1    1    2  501    0  0.15369888864E+01 -0.32380153431E+01  0.29447252107E+01  0.46388027840E+01  0.25500000000E-02 0.  1.
         -2    1    1    2    0  501 -0.15369888864E+01  0.32380153431E+01 -0.10465269085E+01  0.37339393771E+01  0.25500000000E-02 0. -1.
<mgrwt>
<rscale>  0 0.35842830E+01</rscale>
<asrwt>0</asrwt>
<pdfrwt beam="1">0</pdfrwt>
<pdfrwt beam="2">0</pdfrwt>
<totfact> 0.90709568E+11</totfact>
</mgrwt>
</event>
<event>
 4    1  0.3064748E+006  0.3500471E+01  0.7546771E-02  0.2384333E+00
         22   -1    0    0    0    0  0.00000000000E+00  0.00000000000E+00  0.15047870935E+02  0.15047870935E+02  0.00000000000E+00 0.  1.
         22   -1    0    0    0    0 -0.00000000000E+00 -0.00000000000E+00 -0.88046267421E+00  0.88046267421E+00  0.00000000000E+00 0. -1.
          2    1    1    2  501    0  0.35004695420E+01 -0.10155717245E-02  0.92670981996E+01  0.99061800705E+01  0.25500000000E-02 0.  1.
         -2    1    1    2    0  501 -0.35004695420E+01  0.10155717245E-02  0.49003100616E+01  0.60221535391E+01  0.25500000000E-02 0. -1.
<mgrwt>
<rscale>  0 0.35004706E+01</rscale>
<asrwt>0</asrwt>
<pdfrwt beam="1">0</pdfrwt>
<pdfrwt beam="2">0</pdfrwt>
<totfact> 0.11142537E+12</totfact>
</mgrwt>
</event>
<event>
 4    1  0.3064748E+006  0.2667854E+01  0.7546771E-02  0.2638856E+00
         22   -1    0    0    0    0  0.00000000000E+00  0.00000000000E+00  0.18360590888E+02  0.18360590888E+02  0.00000000000E+00 0. -1.
         22   -1    0    0    0    0 -0.00000000000E+00 -0.00000000000E+00 -0.11679295271E+01  0.11679295271E+01  0.00000000000E+00 0.  1.
          2    1    1    2  501    0 -0.19784893224E+01  0.17896973873E+01  0.16577320097E+02  0.16790621931E+02  0.25500000000E-02 0. -1.
         -2    1    1    2    0  501  0.19784893224E+01 -0.17896973873E+01  0.61534126438E+00  0.27378984844E+01  0.25500000000E-02 0.  1.
<mgrwt>
<rscale>  0 0.26678537E+01</rscale>
<asrwt>0</asrwt>
<pdfrwt beam="1">0</pdfrwt>
<pdfrwt beam="2">0</pdfrwt>
<totfact> 0.63094185E+11</totfact>
</mgrwt>
</event>
<event>
 4    1  0.3064748E+006  0.3808913E+01  0.7546771E-02  0.2315380E+00
         22   -1    0    0    0    0  0.00000000000E+00  0.00000000000E+00  0.86756407964E+00  0.86756407964E+00  0.00000000000E+00 0. -1.
         22   -1    0    0    0    0 -0.00000000000E+00 -0.00000000000E+00 -0.17946310694E+02  0.17946310694E+02  0.00000000000E+00 0.  1.
          2    1    1    2  501    0 -0.14761408232E+01  0.35112420844E+01 -0.60828431368E+01  0.71769631346E+01  0.25500000000E-02 0. -1.
         -2    1    1    2    0  501  0.14761408232E+01 -0.35112420844E+01 -0.10995903478E+02  0.11636911639E+02  0.25500000000E-02 0.  1.
<mgrwt>
<rscale>  0 0.38089131E+01</rscale>
<asrwt>0</asrwt>
<pdfrwt beam="1">0</pdfrwt>
<pdfrwt beam="2">0</pdfrwt>
<totfact> 0.91151479E+11</totfact>
</mgrwt>
</event>
<event>
 4    1  0.3064748E+006  0.3651038E+01  0.7546771E-02  0.2349414E+00
         22   -1    0    0    0    0  0.00000000000E+00  0.00000000000E+00  0.16913945949E+01  0.16913945949E+01  0.00000000000E+00 0. -1.
         22   -1    0    0    0    0 -0.00000000000E+00 -0.00000000000E+00 -0.85002873051E+01  0.85002873051E+01  0.00000000000E+00 0.  1.
          2    1    1    2  501    0 -0.30613125294E+01 -0.19895821278E+01 -0.20291247137E+01  0.41770114977E+01  0.25500000000E-02 0. -1.
         -2    1    1    2    0  501  0.30613125294E+01  0.19895821278E+01 -0.47797679964E+01  0.60146704023E+01  0.25500000000E-02 0.  1.
<mgrwt>
<rscale>  0 0.36510379E+01</rscale>
<asrwt>0</asrwt>
<pdfrwt beam="1">0</pdfrwt>
<pdfrwt beam="2">0</pdfrwt>
<totfact> 0.10563616E+12</totfact>
</mgrwt>
</event>
<event>
 4    1  0.3064748E+006  0.2005341E+01  0.7546771E-02  0.2977132E+00
         22   -1    0    0    0    0  0.00000000000E+00  0.00000000000E+00  0.20653703307E+00  0.20653703307E+00  0.00000000000E+00 0. -1.
         22   -1    0    0    0    0 -0.00000000000E+00 -0.00000000000E+00 -0.59326862693E+02  0.59326862693E+02  0.00000000000E+00 0.  1.
          2    1    1    2  501    0  0.12180045770E+01  0.15930636760E+01 -0.51622063080E+01  0.55380292067E+01  0.25500000000E-02 0. -1.
         -2    1    1    2    0  501 -0.12180045770E+01 -0.15930636760E+01 -0.53958119352E+02  0.53995370519E+02  0.25500000000E-02 0.  1.
<mgrwt>
<rscale>  0 0.20053412E+01</rscale>
<asrwt>0</asrwt>
<pdfrwt beam="1">0</pdfrwt>
<pdfrwt beam="2">0</pdfrwt>
<totfact> 0.98988500E+11</totfact>
</mgrwt>
</event>
<event>
 4    1  0.3064748E+006  0.2125248E+01  0.7546771E-02  0.2901026E+00
         22   -1    0    0    0    0  0.00000000000E+00  0.00000000000E+00  0.67729216005E-01  0.67729216005E-01  0.00000000000E+00 0.  1.
         22   -1    0    0    0    0 -0.00000000000E+00 -0.00000000000E+00 -0.72407145457E+02  0.72407145457E+02  0.00000000000E+00 0. -1.
          2    1    1    2  501    0 -0.80501465125E+00 -0.19668814827E+01 -0.25984748832E+02  0.26071514144E+02  0.25500000000E-02 0. -1.
         -2    1    1    2    0  501  0.80501465125E+00  0.19668814827E+01 -0.46354667409E+02  0.46403360529E+02  0.25500000000E-02 0.  1.
<mgrwt>
<rscale>  0 0.21252477E+01</rscale>
<asrwt>0</asrwt>
<pdfrwt beam="1">0</pdfrwt>
<pdfrwt beam="2">0</pdfrwt>
<totfact> 0.26057289E+12</totfact>
</mgrwt>
</event>
<event>
 4    1  0.3064748E+006  0.8189604E+01  0.7546771E-02  0.1865521E+00
         22   -1    0    0    0    0  0.00000000000E+00  0.00000000000E+00  0.52857011843E+01  0.52857011843E+01  0.00000000000E+00 0.  1.
         22   -1    0    0    0    0 -0.00000000000E+00 -0.00000000000E+00 -0.18358042466E+02  0.18358042466E+02  0.00000000000E+00 0. -1.
          2    1    1    2  501    0 -0.67312165779E+01  0.46647969269E+01  0.33333917281E-01  0.81896718273E+01  0.25500000000E-02 0.  1.
         -2    1    1    2    0  501  0.67312165779E+01 -0.46647969269E+01 -0.13105675199E+02  0.15454071823E+02  0.25500000000E-02 0. -1.
<mgrwt>
<rscale>  0 0.81896040E+01</rscale>
<asrwt>0</asrwt>
<pdfrwt beam="1">0</pdfrwt>
<pdfrwt beam="2">0</pdfrwt>
<totfact> 0.10888111E+11</totfact>
</mgrwt>
</event>
<event>
 4    1  0.3064748E+006  0.3021116E+01  0.7546771E-02  0.2515549E+00
         22   -1    0    0    0    0  0.00000000000E+00  0.00000000000E+00  0.11330509509E+01  0.11330509509E+01  0.00000000000E+00 0. -1.
         22   -1    0    0    0    0 -0.00000000000E+00 -0.00000000000E+00 -0.85084141605E+01  0.85084141605E+01  0.00000000000E+00 0.  1.
          2    1    1    2  501    0  0.26581183547E+01 -0.14358075499E+01 -0.25752849230E+01  0.39697903528E+01  0.25500000000E-02 0. -1.
         -2    1    1    2    0  501 -0.26581183547E+01  0.14358075499E+01 -0.48000782866E+01  0.56716747587E+01  0.25500000000E-02 0.  1.
<mgrwt>
<rscale>  0 0.30211162E+01</rscale>
<asrwt>0</asrwt>
<pdfrwt beam="1">0</pdfrwt>
<pdfrwt beam="2">0</pdfrwt>
<totfact> 0.16718955E+12</totfact>
</mgrwt>
</event>
<event>
 4    1  0.3064748E+006  0.2905469E+01  0.7546771E-02  0.2552924E+00
         22   -1    0    0    0    0  0.00000000000E+00  0.00000000000E+00  0.12457075221E+02  0.12457075221E+02  0.00000000000E+00 0.  1.
         22   -1    0    0    0    0 -0.00000000000E+00 -0.00000000000E+00 -0.68104932748E+00  0.68104932748E+00  0.00000000000E+00 0. -1.
          2    1    1    2  501    0 -0.27420066390E+01  0.96080350441E+00  0.63509417881E+01  0.69839968414E+01  0.25500000000E-02 0. -1.
         -2    1    1    2    0  501  0.27420066390E+01 -0.96080350441E+00  0.54250841058E+01  0.61541277075E+01  0.25500000000E-02 0.  1.
<mgrwt>
<rscale>  0 0.29054690E+01</rscale>
<asrwt>0</asrwt>
<pdfrwt beam="1">0</pdfrwt>
<pdfrwt beam="2">0</pdfrwt>
<totfact> 0.18809965E+12</totfact>
</mgrwt>
</event>
<event>
 4    1  0.3064748E+006  0.2032768E+01  0.7546771E-02  0.2958952E+00
         22   -1    0    0    0    0  0.00000000000E+00  0.00000000000E+00  0.89360378620E+02  0.89360378620E+02  0.00000000000E+00 0.  1.
         22   -1    0    0    0    0 -0.00000000000E+00 -0.00000000000E+00 -0.62273556004E-01  0.62273556004E-01  0.00000000000E+00 0. -1.
          2    1    1    2  501    0  0.39234877573E+00  0.19945427229E+01  0.67335282530E+02  0.67365958897E+02  0.25500000000E-02 0.  1.
         -2    1    1    2    0  501 -0.39234877573E+00 -0.19945427229E+01  0.21962822534E+02  0.22056693279E+02  0.25500000000E-02 0. -1.
<mgrwt>
<rscale>  0 0.20327678E+01</rscale>
<asrwt>0</asrwt>
<pdfrwt beam="1">0</pdfrwt>
<pdfrwt beam="2">0</pdfrwt>
<totfact> 0.21402369E+12</totfact>
</mgrwt>
</event>
<event>
 4    1  0.3064748E+006  0.2978566E+01  0.7546771E-02  0.2528997E+00
         22   -1    0    0    0    0  0.00000000000E+00  0.00000000000E+00  0.70453272807E+00  0.70453272807E+00  0.00000000000E+00 0.  1.
         22   -1    0    0    0    0 -0.00000000000E+00 -0.00000000000E+00 -0.19288969000E+02  0.19288969000E+02  0.00000000000E+00 0. -1.
          2    1    1    2  501    0 -0.13645262064E+01  0.26476243728E+01 -0.34020708415E+01  0.45217186003E+01  0.25500000000E-02 0.  1.
         -2    1    1    2    0  501  0.13645262064E+01 -0.26476243728E+01 -0.15182365430E+02  0.15471783128E+02  0.25500000000E-02 0. -1.
<mgrwt>
<rscale>  0 0.29785656E+01</rscale>
<asrwt>0</asrwt>
<pdfrwt beam="1">0</pdfrwt>
<pdfrwt beam="2">0</pdfrwt>
<totfact> 0.10559029E+12</totfact>
</mgrwt>
</event>
<event>
 4    1  0.3064748E+006  0.3860355E+01  0.7546771E-02  0.2304810E+00
         22   -1    0    0    0    0  0.00000000000E+00  0.00000000000E+00  0.19580831263E+02  0.19580831263E+02  0.00000000000E+00 0. -1.
         22   -1    0    0    0    0 -0.00000000000E+00 -0.00000000000E+00 -0.10095144211E+01  0.10095144211E+01  0.00000000000E+00 0.  1.
          2    1    1    2  501    0 -0.28620200819E+01 -0.25905931904E+01  0.41783274876E+01  0.56886517843E+01  0.25500000000E-02 0.  1.
         -2    1    1    2    0  501  0.28620200819E+01  0.25905931904E+01  0.14392989354E+02  0.14901693900E+02  0.25500000000E-02 0. -1.
<mgrwt>
<rscale>  0 0.38603547E+01</rscale>
<asrwt>0</asrwt>
<pdfrwt beam="1">0</pdfrwt>
<pdfrwt beam="2">0</pdfrwt>
<totfact> 0.68807930E+11</totfact>
</mgrwt>
</event>
<event>
 4    1  0.3064748E+006  0.2310416E+01  0.7546771E-02  0.2798511E+00
         22   -1    0    0    0    0  0.00000000000E+00  0.00000000000E+00  0.95290407454E+00  0.95290407454E+00  0.00000000000E+00 0. -1.
         22   -1    0    0    0    0 -0.00000000000E+00 -0.00000000000E+00 -0.70370369884E+01  0.70370369884E+01  0.00000000000E+00 0.  1.
          2    1    1    2  501    0 -0.75146107764E+00  0.21847937333E+01 -0.12379141837E+01  0.26211553631E+01  0.25500000000E-02 0. -1.
         -2    1    1    2    0  501  0.75146107764E+00 -0.21847937333E+01 -0.48462187302E+01  0.53687856999E+01  0.25500000000E-02 0.  1.
<mgrwt>
<rscale>  0 0.23104164E+01</rscale>
<asrwt>0</asrwt>
<pdfrwt beam="1">0</pdfrwt>
<pdfrwt beam="2">0</pdfrwt>
<totfact> 0.25590825E+12</totfact>
</mgrwt>
</event>
<event>
 4    1  0.3064748E+006  0.2074053E+01  0.7546771E-02  0.2932472E+00
         22   -1    0    0    0    0  0.00000000000E+00  0.00000000000E+00  0.12216980231E+02  0.12216980231E+02  0.00000000000E+00 0. -1.
         22   -1    0    0    0    0 -0.00000000000E+00 -0.00000000000E+00 -0.35356896661E+00  0.35356896661E+00  0.00000000000E+00 0.  1.
          2    1    1    2  501    0  0.12456762152E+01 -0.16583061080E+01  0.63357478045E+01  0.66665879673E+01  0.25500000000E-02 0.  1.
         -2    1    1    2    0  501 -0.12456762152E+01  0.16583061080E+01  0.55276634600E+01  0.59039612305E+01  0.25500000000E-02 0. -1.
<mgrwt>
<rscale>  0 0.20740528E+01</rscale>
<asrwt>0</asrwt>
<pdfrwt beam="1">0</pdfrwt>
<pdfrwt beam="2">0</pdfrwt>
<totfact> 0.40373646E+12</totfact>
</mgrwt>
</event>
<event>
 4    1  0.3064748E+006  0.3121640E+01  0.7546771E-02  0.2485084E+00
         22   -1    0    0    0    0  0.00000000000E+00  0.00000000000E+00  0.10328582292E+00  0.10328582292E+00  0.00000000000E+00 0.  1.
         22   -1    0    0    0    0 -0.00000000000E+00 -0.00000000000E+00 -0.94781607947E+02  0.94781607947E+02  0.00000000000E+00 0. -1.
          2    1    1    2  501    0  0.55994839722E+00 -0.30710076779E+01 -0.50554268250E+02  0.50650554539E+02  0.25500000000E-02 0. -1.
         -2    1    1    2    0  501 -0.55994839722E+00  0.30710076779E+01 -0.44124053874E+02  0.44234339231E+02  0.25500000000E-02 0.  1.
<mgrwt>
<rscale>  0 0.31216401E+01</rscale>
<asrwt>0</asrwt>
<pdfrwt beam="1">0</pdfrwt>
<pdfrwt beam="2">0</pdfrwt>
<totfact> 0.11275601E+12</totfact>
</mgrwt>
</event>
<event>
 4    1  0.3064748E+006  0.3936341E+01  0.7546771E-02  0.2289631E+00
         22   -1    0    0    0    0  0.00000000000E+00  0.00000000000E+00  0.24928085937E+01  0.24928085937E+01  0.00000000000E+00 0. -1.
         22   -1    0    0    0    0 -0.00000000000E+00 -0.00000000000E+00 -0.11401085322E+02  0.11401085322E+02  0.00000000000E+00 0.  1.
          2    1    1    2  501    0  0.37009513517E+00 -0.39189028906E+01  0.23084009757E+00  0.39431033373E+01  0.25500000000E-02 0. -1.
         -2    1    1    2    0  501 -0.37009513517E+00  0.39189028906E+01 -0.91391168259E+01  0.99507905784E+01  0.25500000000E-02 0.  1.
<mgrwt>
<rscale>  0 0.39363405E+01</rscale>
<asrwt>0</asrwt>
<pdfrwt beam="1">0</pdfrwt>
<pdfrwt beam="2">0</pdfrwt>
<totfact> 0.47250278E+11</totfact>
</mgrwt>
</event>
<event>
 4    1  0.3064748E+006  0.2028552E+01  0.7546771E-02  0.2961714E+00
         22   -1    0    0    0    0  0.00000000000E+00  0.00000000000E+00  0.67093641565E+01  0.67093641565E+01  0.00000000000E+00 0.  1.
         22   -1    0    0    0    0 -0.00000000000E+00 -0.00000000000E+00 -0.66606024608E+00  0.66606024608E+00  0.00000000000E+00 0. -1.
          2    1    1    2  501    0 -0.18757895626E+01  0.77228991915E+00  0.19840080542E+01  0.28374835091E+01  0.25500000000E-02 0.  1.
         -2    1    1    2    0  501  0.18757895626E+01 -0.77228991915E+00  0.40592958562E+01  0.45379408935E+01  0.25500000000E-02 0. -1.
<mgrwt>
<rscale>  0 0.20285524E+01</rscale>
<asrwt>0</asrwt>
<pdfrwt beam="1">0</pdfrwt>
<pdfrwt beam="2">0</pdfrwt>
<totfact> 0.40713777E+12</totfact>
</mgrwt>
</event>
<event>
 4    1  0.3064748E+006  0.2830558E+01  0.7546771E-02  0.2578598E+00
         22   -1    0    0    0    0  0.00000000000E+00  0.00000000000E+00  0.55940378349E+01  0.55940378349E+01  0.00000000000E+00 0.  1.
         22   -1    0    0    0    0 -0.00000000000E+00 -0.00000000000E+00 -0.19338957112E+01  0.19338957112E+01  0.00000000000E+00 0. -1.
          2    1    1    2  501    0  0.14237312472E+01 -0.24464341886E+01  0.37470973205E+01  0.46960404316E+01  0.25500000000E-02 0.  1.
         -2    1    1    2    0  501 -0.14237312472E+01  0.24464341886E+01 -0.86955196785E-01  0.28318931146E+01  0.25500000000E-02 0. -1.
<mgrwt>
<rscale>  0 0.28305578E+01</rscale>
<asrwt>0</asrwt>
<pdfrwt beam="1">0</pdfrwt>
<pdfrwt beam="2">0</pdfrwt>
<totfact> 0.14923298E+12</totfact>
</mgrwt>
</event>
<event>
 4    1  0.3064748E+006  0.2446351E+01  0.7546771E-02  0.2732665E+00
         22   -1    0    0    0    0  0.00000000000E+00  0.00000000000E+00  0.46228031089E+00  0.46228031089E+00  0.00000000000E+00 0.  1.
         22   -1    0    0    0    0 -0.00000000000E+00 -0.00000000000E+00 -0.16478959272E+02  0.16478959272E+02  0.00000000000E+00 0. -1.
          2    1    1    2  501    0 -0.15199933673E+01 -0.19168324587E+01 -0.40861733847E+01  0.47625041673E+01  0.25500000000E-02 0.  1.
         -2    1    1    2    0  501  0.15199933673E+01  0.19168324587E+01 -0.11930505577E+02  0.12178735416E+02  0.25500000000E-02 0. -1.
<mgrwt>
<rscale>  0 0.24463510E+01</rscale>
<asrwt>0</asrwt>
<pdfrwt beam="1">0</pdfrwt>
<pdfrwt beam="2">0</pdfrwt>
<totfact> 0.20676622E+12</totfact>
</mgrwt>
</event>
<event>
 4    1  0.3064748E+006  0.2456614E+01  0.7546771E-02  0.2727972E+00
         22   -1    0    0    0    0  0.00000000000E+00  0.00000000000E+00  0.29355165702E+02  0.29355165702E+02  0.00000000000E+00 0.  1.
         22   -1    0    0    0    0 -0.00000000000E+00 -0.00000000000E+00 -0.32292022300E+00  0.32292022300E+00  0.00000000000E+00 0. -1.
          2    1    1    2  501    0 -0.16197677092E+01 -0.18469698548E+01  0.23460999748E+02  0.23589265795E+02  0.25500000000E-02 0.  1.
         -2    1    1    2    0  501  0.16197677092E+01  0.18469698548E+01  0.55712457311E+01  0.60888201300E+01  0.25500000000E-02 0. -1.
<mgrwt>
<rscale>  0 0.24566138E+01</rscale>
<asrwt>0</asrwt>
<pdfrwt beam="1">0</pdfrwt>
<pdfrwt beam="2">0</pdfrwt>
<totfact> 0.15013984E+12</totfact>
</mgrwt>
</event>
<event>
 4    1  0.3064748E+006  0.3004967E+01  0.7546771E-02  0.2520613E+00
         22   -1    0    0    0    0  0.00000000000E+00  0.00000000000E+00  0.27466444544E+01  0.27466444544E+01  0.00000000000E+00 0.  1.
         22   -1    0    0    0    0 -0.00000000000E+00 -0.00000000000E+00 -0.33895044284E+01  0.33895044284E+01  0.00000000000E+00 0. -1.
          2    1    1    2  501    0 -0.14462534378E+01  0.26340411478E+01  0.21058684568E+00  0.30123371486E+01  0.25500000000E-02 0.  1.
         -2    1    1    2    0  501  0.14462534378E+01 -0.26340411478E+01 -0.85344681970E+00  0.31238117343E+01  0.25500000000E-02 0. -1.
<mgrwt>
<rscale>  0 0.30049673E+01</rscale>
<asrwt>0</asrwt>
<pdfrwt beam="1">0</pdfrwt>
<pdfrwt beam="2">0</pdfrwt>
<totfact> 0.17931252E+12</totfact>
</mgrwt>
</event>
<event>
 4    1  0.3064748E+006  0.3336001E+01  0.7546771E-02  0.2425598E+00
         22   -1    0    0    0    0  0.00000000000E+00  0.00000000000E+00  0.19405944046E+00  0.19405944046E+00  0.00000000000E+00 0. -1.
         22   -1    0    0    0    0 -0.00000000000E+00 -0.00000000000E+00 -0.87434349516E+02  0.87434349516E+02  0.00000000000E+00 0.  1.
          2    1    1    2  501    0 -0.18192130765E+01  0.27963121706E+01 -0.17918599258E+02  0.18226494557E+02  0.25500000000E-02 0. -1.
         -2    1    1    2    0  501  0.18192130765E+01 -0.27963121706E+01 -0.69321690818E+02  0.69401914400E+02  0.25500000000E-02 0.  1.
<mgrwt>
<rscale>  0 0.33360013E+01</rscale>
<asrwt>0</asrwt>
<pdfrwt beam="1">0</pdfrwt>
<pdfrwt beam="2">0</pdfrwt>
<totfact> 0.62606061E+11</totfact>
</mgrwt>
</event>
<event>
 4    1  0.3064748E+006  0.3006740E+01  0.7546771E-02  0.2520054E+00
         22   -1    0    0    0    0  0.00000000000E+00  0.00000000000E+00  0.15730125064E+02  0.15730125064E+02  0.00000000000E+00 0. -1.
         22   -1    0    0    0    0 -0.00000000000E+00 -0.00000000000E+00 -0.61334304120E+01  0.61334304120E+01  0.00000000000E+00 0.  1.
          2    1    1    2  501    0  0.28622975471E+01  0.92072499405E+00  0.15205356107E+02  0.15499785243E+02  0.25500000000E-02 0. -1.
         -2    1    1    2    0  501 -0.28622975471E+01 -0.92072499405E+00 -0.56086614543E+01  0.63637702327E+01  0.25500000000E-02 0.  1.
<mgrwt>
<rscale>  0 0.30067405E+01</rscale>
<asrwt>0</asrwt>
<pdfrwt beam="1">0</pdfrwt>
<pdfrwt beam="2">0</pdfrwt>
<totfact> 0.11045752E+11</totfact>
</mgrwt>
</event>
<event>
 4    1  0.3064748E+006  0.2494002E+01  0.7546771E-02  0.2711180E+00
         22   -1    0    0    0    0  0.00000000000E+00  0.00000000000E+00  0.29566424410E+00  0.29566424410E+00  0.00000000000E+00 0.  1.
         22   -1    0    0    0    0 -0.00000000000E+00 -0.00000000000E+00 -0.23289894569E+02  0.23289894569E+02  0.00000000000E+00 0. -1.
          2    1    1    2  501    0  0.94899117835E+00  0.23063942425E+01 -0.78297695782E+01  0.82173801669E+01  0.25500000000E-02 0. -1.
         -2    1    1    2    0  501 -0.94899117835E+00 -0.23063942425E+01 -0.15164460747E+02  0.15368178646E+02  0.25500000000E-02 0.  1.
<mgrwt>
<rscale>  0 0.24940018E+01</rscale>
<asrwt>0</asrwt>
<pdfrwt beam="1">0</pdfrwt>
<pdfrwt beam="2">0</pdfrwt>
<totfact> 0.22210650E+12</totfact>
</mgrwt>
</event>
<event>
 4    1  0.3064748E+006  0.2046411E+01  0.7546771E-02  0.2950086E+00
         22   -1    0    0    0    0  0.00000000000E+00  0.00000000000E+00  0.90086159296E+01  0.90086159296E+01  0.00000000000E+00 0.  1.
         22   -1    0    0    0    0 -0.00000000000E+00 -0.00000000000E+00 -0.83635962694E+00  0.83635962694E+00  0.00000000000E+00 0. -1.
          2    1    1    2  501    0 -0.17340497801E+01  0.10866750693E+01  0.73668083050E+01  0.76457610773E+01  0.25500000000E-02 0.  1.
         -2    1    1    2    0  501  0.17340497801E+01 -0.10866750693E+01  0.80544799767E+00  0.21992144792E+01  0.25500000000E-02 0. -1.
<mgrwt>
<rscale>  0 0.20464110E+01</rscale>
<asrwt>0</asrwt>
<pdfrwt beam="1">0</pdfrwt>
<pdfrwt beam="2">0</pdfrwt>
<totfact> 0.22068409E+12</totfact>
</mgrwt>
</event>
<event>
 4    1  0.3064748E+006  0.2161172E+01  0.7546771E-02  0.2879821E+00
         22   -1    0    0    0    0  0.00000000000E+00  0.00000000000E+00  0.19982965085E+02  0.19982965085E+02  0.00000000000E+00 0.  1.
         22   -1    0    0    0    0 -0.00000000000E+00 -0.00000000000E+00 -0.27895708603E+01  0.27895708603E+01  0.00000000000E+00 0. -1.
          2    1    1    2  501    0  0.21579327510E+01 -0.11824583206E+00  0.19495515593E+02  0.19614937944E+02  0.25500000000E-02 0.  1.
         -2    1    1    2    0  501 -0.21579327510E+01  0.11824583206E+00 -0.23021213685E+01  0.31575980004E+01  0.25500000000E-02 0. -1.
<mgrwt>
<rscale>  0 0.21611715E+01</rscale>
<asrwt>0</asrwt>
<pdfrwt beam="1">0</pdfrwt>
<pdfrwt beam="2">0</pdfrwt>
<totfact> 0.20768202E+11</totfact>
</mgrwt>
</event>
<event>
 4    1  0.3064748E+006  0.4177986E+01  0.7546771E-02  0.2244510E+00
         22   -1    0    0    0    0  0.00000000000E+00  0.00000000000E+00  0.49389605445E+01  0.49389605445E+01  0.00000000000E+00 0.  1.
         22   -1    0    0    0    0 -0.00000000000E+00 -0.00000000000E+00 -0.43197326685E+01  0.43197326685E+01  0.00000000000E+00 0. -1.
          2    1    1    2  501    0 -0.66001770725E+00 -0.41255229699E+01  0.22836580816E+01  0.47613720591E+01  0.25500000000E-02 0.  1.
         -2    1    1    2    0  501  0.66001770725E+00  0.41255229699E+01 -0.16644302056E+01  0.44973211539E+01  0.25500000000E-02 0. -1.
<mgrwt>
<rscale>  0 0.41779863E+01</rscale>
<asrwt>0</asrwt>
<pdfrwt beam="1">0</pdfrwt>
<pdfrwt beam="2">0</pdfrwt>
<totfact> 0.67695023E+11</totfact>
</mgrwt>
</event>
<event>
 4    1  0.3064748E+006  0.2117146E+01  0.7546771E-02  0.2905904E+00
         22   -1    0    0    0    0  0.00000000000E+00  0.00000000000E+00  0.12873131624E+02  0.12873131624E+02  0.00000000000E+00 0. -1.
         22   -1    0    0    0    0 -0.00000000000E+00 -0.00000000000E+00 -0.40197021114E+00  0.40197021114E+00  0.00000000000E+00 0.  1.
          2    1    1    2  501    0  0.20450127757E+01 -0.54792644723E+00  0.86634124851E+01  0.89183531570E+01  0.25500000000E-02 0. -1.
         -2    1    1    2    0  501 -0.20450127757E+01  0.54792644723E+00  0.38077489276E+01  0.43567486779E+01  0.25500000000E-02 0.  1.
<mgrwt>
<rscale>  0 0.21171460E+01</rscale>
<asrwt>0</asrwt>
<pdfrwt beam="1">0</pdfrwt>
<pdfrwt beam="2">0</pdfrwt>
<totfact> 0.32785615E+12</totfact>
</mgrwt>
</event>
<event>
 4    1  0.3064748E+006  0.4426016E+01  0.7546771E-02  0.2202576E+00
         22   -1    0    0    0    0  0.00000000000E+00  0.00000000000E+00  0.18780288999E+01  0.18780288999E+01  0.00000000000E+00 0.  1.
         22   -1    0    0    0    0 -0.00000000000E+00 -0.00000000000E+00 -0.10842637797E+02  0.10842637797E+02  0.00000000000E+00 0. -1.
          2    1    1    2  501    0  0.43470015965E+01  0.83257923855E+00 -0.57216677767E+01  0.72337472805E+01  0.25500000000E-02 0. -1.
         -2    1    1    2    0  501 -0.43470015965E+01 -0.83257923855E+00 -0.32429411205E+01  0.54869194164E+01  0.25500000000E-02 0.  1.
<mgrwt>
<rscale>  0 0.44260160E+01</rscale>
<asrwt>0</asrwt>
<pdfrwt beam="1">0</pdfrwt>
<pdfrwt beam="2">0</pdfrwt>
<totfact> 0.69745830E+11</totfact>
</mgrwt>
</event>
<event>
 4    1  0.3064748E+006  0.2051774E+01  0.7546771E-02  0.2946632E+00
         22   -1    0    0    0    0  0.00000000000E+00  0.00000000000E+00  0.48660641445E+00  0.48660641445E+00  0.00000000000E+00 0. -1.
         22   -1    0    0    0    0 -0.00000000000E+00 -0.00000000000E+00 -0.87444387830E+01  0.87444387830E+01  0.00000000000E+00 0.  1.
          2    1    1    2  501    0  0.19750998340E+01 -0.55565248327E+00 -0.36525594241E+01  0.41893872924E+01  0.25500000000E-02 0. -1.
         -2    1    1    2    0  501 -0.19750998340E+01  0.55565248327E+00 -0.46052729444E+01  0.50416579051E+01  0.25500000000E-02 0.  1.
<mgrwt>
<rscale>  0 0.20517738E+01</rscale>
<asrwt>0</asrwt>
<pdfrwt beam="1">0</pdfrwt>
<pdfrwt beam="2">0</pdfrwt>
<totfact> 0.42264435E+12</totfact>
</mgrwt>
</event>
<event>
 4    1  0.3064748E+006  0.2307700E+01  0.7546771E-02  0.2799901E+00
         22   -1    0    0    0    0  0.00000000000E+00  0.00000000000E+00  0.37737298043E+01  0.37737298043E+01  0.00000000000E+00 0.  1.
         22   -1    0    0    0    0 -0.00000000000E+00 -0.00000000000E+00 -0.15227809210E+01  0.15227809210E+01  0.00000000000E+00 0. -1.
          2    1    1    2  501    0 -0.20765061523E+01 -0.10067737318E+01  0.18423457472E+01  0.29529164402E+01  0.25500000000E-02 0.  1.
         -2    1    1    2    0  501  0.20765061523E+01  0.10067737318E+01  0.40860313604E+00  0.23435942851E+01  0.25500000000E-02 0. -1.
<mgrwt>
<rscale>  0 0.23076996E+01</rscale>
<asrwt>0</asrwt>
<pdfrwt beam="1">0</pdfrwt>
<pdfrwt beam="2">0</pdfrwt>
<totfact> 0.31300120E+12</totfact>
</mgrwt>
</event>
<event>
 4    1  0.3064748E+006  0.2067900E+01  0.7546771E-02  0.2936353E+00
         22   -1    0    0    0    0  0.00000000000E+00  0.00000000000E+00  0.79913753200E+01  0.79913753200E+01  0.00000000000E+00 0.  1.
         22   -1    0    0    0    0 -0.00000000000E+00 -0.00000000000E+00 -0.30134430937E+01  0.30134430937E+01  0.00000000000E+00 0. -1.
          2    1    1    2  501    0  0.19687722417E+01 -0.63256547385E+00  0.74789808745E+01  0.77595982268E+01  0.25500000000E-02 0.  1.
         -2    1    1    2    0  501 -0.19687722417E+01  0.63256547385E+00 -0.25010486482E+01  0.32452201869E+01  0.25500000000E-02 0. -1.
<mgrwt>
<rscale>  0 0.20678998E+01</rscale>
<asrwt>0</asrwt>
<pdfrwt beam="1">0</pdfrwt>
<pdfrwt beam="2">0</pdfrwt>
<totfact> 0.58197381E+11</totfact>
</mgrwt>
</event>
<event>
 4    1  0.3064748E+006  0.2293798E+01  0.7546771E-02  0.2807065E+00
         22   -1    0    0    0    0  0.00000000000E+00  0.00000000000E+00  0.73096075316E+00  0.73096075316E+00  0.00000000000E+00 0. -1.
         22   -1    0    0    0    0 -0.00000000000E+00 -0.00000000000E+00 -0.13504154001E+02  0.13504154001E+02  0.00000000000E+00 0.  1.
          2    1    1    2  501    0  0.67218358213E+00 -0.21930959474E+01 -0.15227805795E+01  0.27532467740E+01  0.25500000000E-02 0. -1.
         -2    1    1    2    0  501 -0.67218358213E+00  0.21930959474E+01 -0.11250412668E+02  0.11481867980E+02  0.25500000000E-02 0.  1.
<mgrwt>
<rscale>  0 0.22937975E+01</rscale>
<asrwt>0</asrwt>
<pdfrwt beam="1">0</pdfrwt>
<pdfrwt beam="2">0</pdfrwt>
<totfact> 0.15726282E+12</totfact>
</mgrwt>
</event>
<event>
 4    1  0.3064748E+006  0.2907082E+01  0.7546771E-02  0.2552384E+00
         22   -1    0    0    0    0  0.00000000000E+00  0.00000000000E+00  0.16722536008E+01  0.16722536008E+01  0.00000000000E+00 0. -1.
         22   -1    0    0    0    0 -0.00000000000E+00 -0.00000000000E+00 -0.50541684617E+01  0.50541684617E+01  0.00000000000E+00 0.  1.
          2    1    1    2  501    0 -0.29060467164E+01 -0.77551095850E-01 -0.17220683074E+01  0.33788529782E+01  0.25500000000E-02 0. -1.
         -2    1    1    2    0  501  0.29060467164E+01  0.77551095850E-01 -0.16598465535E+01  0.33475690842E+01  0.25500000000E-02 0.  1.
<mgrwt>
<rscale>  0 0.29070824E+01</rscale>
<asrwt>0</asrwt>
<pdfrwt beam="1">0</pdfrwt>
<pdfrwt beam="2">0</pdfrwt>
<totfact> 0.19909126E+12</totfact>
</mgrwt>
</event>
<event>
 4    1  0.3064748E+006  0.3061796E+01  0.7546771E-02  0.2503005E+00
         22   -1    0    0    0    0  0.00000000000E+00  0.00000000000E+00  0.93295751897E+00  0.93295751897E+00  0.00000000000E+00 0.  1.
         22   -1    0    0    0    0 -0.00000000000E+00 -0.00000000000E+00 -0.43547234145E+02  0.43547234145E+02  0.00000000000E+00 0. -1.
          2    1    1    2  501    0  0.69304484736E+00 -0.29823275250E+01 -0.18009617154E+01  0.35521906241E+01  0.25500000000E-02 0.  1.
         -2    1    1    2    0  501 -0.69304484736E+00  0.29823275250E+01 -0.40813314911E+02  0.40928001040E+02  0.25500000000E-02 0. -1.
<mgrwt>
<rscale>  0 0.30617961E+01</rscale>
<asrwt>0</asrwt>
<pdfrwt beam="1">0</pdfrwt>
<pdfrwt beam="2">0</pdfrwt>
<totfact> 0.27206511E+11</totfact>
</mgrwt>
</event>
<event>
 4    1  0.3064748E+006  0.3269424E+01  0.7546771E-02  0.2443335E+00
         22   -1    0    0    0    0  0.00000000000E+00  0.00000000000E+00  0.55365587504E+01  0.55365587504E+01  0.00000000000E+00 0. -1.
         22   -1    0    0    0    0 -0.00000000000E+00 -0.00000000000E+00 -0.23932902627E+01  0.23932902627E+01  0.00000000000E+00 0.  1.
          2    1    1    2  501    0  0.10352246317E+01 -0.31011987274E+01  0.33148905424E+01  0.46559241182E+01  0.25500000000E-02 0. -1.
         -2    1    1    2    0  501 -0.10352246317E+01  0.31011987274E+01 -0.17162205464E+00  0.32739248948E+01  0.25500000000E-02 0.  1.
<mgrwt>
<rscale>  0 0.32694235E+01</rscale>
<asrwt>0</asrwt>
<pdfrwt beam="1">0</pdfrwt>
<pdfrwt beam="2">0</pdfrwt>
<totfact> 0.11800178E+12</totfact>
</mgrwt>
</event>
<event>
 4    1  0.3064748E+006  0.2388439E+01  0.7546771E-02  0.2759855E+00
         22   -1    0    0    0    0  0.00000000000E+00  0.00000000000E+00  0.36240610425E+00  0.36240610425E+00  0.00000000000E+00 0.  1.
         22   -1    0    0    0    0 -0.00000000000E+00 -0.00000000000E+00 -0.22729627229E+02  0.22729627229E+02  0.00000000000E+00 0. -1.
          2    1    1    2  501    0  0.16477273198E+01  0.17290540929E+01 -0.47813772155E+01  0.53447364720E+01  0.25500000000E-02 0.  1.
         -2    1    1    2    0  501 -0.16477273198E+01 -0.17290540929E+01 -0.17585843909E+02  0.17747296861E+02  0.25500000000E-02 0. -1.
<mgrwt>
<rscale>  0 0.23884388E+01</rscale>
<asrwt>0</asrwt>
<pdfrwt beam="1">0</pdfrwt>
<pdfrwt beam="2">0</pdfrwt>
<totfact> 0.18222512E+12</totfact>
</mgrwt>
</event>
<event>
 4    1  0.3064748E+006  0.2738066E+01  0.7546771E-02  0.2612051E+00
         22   -1    0    0    0    0  0.00000000000E+00  0.00000000000E+00  0.19534932675E+00  0.19534932675E+00  0.00000000000E+00 0.  1.
         22   -1    0    0    0    0 -0.00000000000E+00 -0.00000000000E+00 -0.64018518312E+02  0.64018518312E+02  0.00000000000E+00 0. -1.
          2    1    1    2  501    0 -0.19259453432E+01  0.19462101541E+01 -0.11592028425E+02  0.11911008729E+02  0.25500000000E-02 0.  1.
         -2    1    1    2    0  501  0.19259453432E+01 -0.19462101541E+01 -0.52231140560E+02  0.52302858910E+02  0.25500000000E-02 0. -1.
<mgrwt>
<rscale>  0 0.27380661E+01</rscale>
<asrwt>0</asrwt>
<pdfrwt beam="1">0</pdfrwt>
<pdfrwt beam="2">0</pdfrwt>
<totfact> 0.95123732E+11</totfact>
</mgrwt>
</event>
<event>
 4    1  0.3064748E+006  0.3044473E+01  0.7546771E-02  0.2508310E+00
         22   -1    0    0    0    0  0.00000000000E+00  0.00000000000E+00  0.31377406173E+02  0.31377406173E+02  0.00000000000E+00 0.  1.
         22   -1    0    0    0    0 -0.00000000000E+00 -0.00000000000E+00 -0.46112422419E+00  0.46112422419E+00  0.00000000000E+00 0. -1.
          2    1    1    2  501    0 -0.26880929503E+01 -0.14293228497E+01  0.25001692948E+02  0.25186374576E+02  0.25500000000E-02 0.  1.
         -2    1    1    2    0  501  0.26880929503E+01  0.14293228497E+01  0.59145890010E+01  0.66521558214E+01  0.25500000000E-02 0. -1.
<mgrwt>
<rscale>  0 0.30444727E+01</rscale>
<asrwt>0</asrwt>
<pdfrwt beam="1">0</pdfrwt>
<pdfrwt beam="2">0</pdfrwt>
<totfact> 0.92371326E+11</totfact>
</mgrwt>
</event>
<event>
 4    1  0.3064748E+006  0.2009631E+01  0.7546771E-02  0.2974256E+00
         22   -1    0    0    0    0  0.00000000000E+00  0.00000000000E+00  0.47099710133E+00  0.47099710133E+00  0.00000000000E+00 0. -1.
         22   -1    0    0    0    0 -0.00000000000E+00 -0.00000000000E+00 -0.17346189185E+02  0.17346189185E+02  0.00000000000E+00 0.  1.
          2    1    1    2  501    0  0.16337001670E+01 -0.11703127838E+01 -0.21026040602E+01  0.29085320325E+01  0.25500000000E-02 0. -1.
         -2    1    1    2    0  501 -0.16337001670E+01  0.11703127838E+01 -0.14772588023E+02  0.14908654254E+02  0.25500000000E-02 0.  1.
<mgrwt>
<rscale>  0 0.20096305E+01</rscale>
<asrwt>0</asrwt>
<pdfrwt beam="1">0</pdfrwt>
<pdfrwt beam="2">0</pdfrwt>
<totfact> 0.18998902E+12</totfact>
</mgrwt>
</event>
<event>
 4    1  0.3064748E+006  0.2386539E+01  0.7546771E-02  0.2760768E+00
         22   -1    0    0    0    0  0.00000000000E+00  0.00000000000E+00  0.24021045805E+00  0.24021045805E+00  0.00000000000E+00 0.  1.
         22   -1    0    0    0    0 -0.00000000000E+00 -0.00000000000E+00 -0.30306443297E+02  0.30306443297E+02  0.00000000000E+00 0. -1.
          2    1    1    2  501    0  0.17010909814E+01 -0.16738730626E+01 -0.22158310022E+02  0.22286459366E+02  0.25500000000E-02 0. -1.
         -2    1    1    2    0  501 -0.17010909814E+01  0.16738730626E+01 -0.79079228169E+01  0.82601943886E+01  0.25500000000E-02 0.  1.
<mgrwt>
<rscale>  0 0.23865389E+01</rscale>
<asrwt>0</asrwt>
<pdfrwt beam="1">0</pdfrwt>
<pdfrwt beam="2">0</pdfrwt>
<totfact> 0.20081317E+12</totfact>
</mgrwt>
</event>
<event>
 4    1  0.3064748E+006  0.3449825E+01  0.7546771E-02  0.2396673E+00
         22   -1    0    0    0    0  0.00000000000E+00  0.00000000000E+00  0.26153745158E+01  0.26153745158E+01  0.00000000000E+00 0. -1.
         22   -1    0    0    0    0 -0.00000000000E+00 -0.00000000000E+00 -0.45568023820E+01  0.45568023820E+01  0.00000000000E+00 0.  1.
          2    1    1    2  501    0  0.20830864523E+01  0.27499155726E+01 -0.83746827715E+00  0.35500203439E+01  0.25500000000E-02 0. -1.
         -2    1    1    2    0  501 -0.20830864523E+01 -0.27499155726E+01 -0.11039595890E+01  0.36221565539E+01  0.25500000000E-02 0.  1.
<mgrwt>
<rscale>  0 0.34498248E+01</rscale>
<asrwt>0</asrwt>
<pdfrwt beam="1">0</pdfrwt>
<pdfrwt beam="2">0</pdfrwt>
<totfact> 0.13403490E+12</totfact>
</mgrwt>
</event>
<event>
 4    1  0.3064748E+006  0.3677963E+01  0.7546771E-02  0.2343431E+00
         22   -1    0    0    0    0  0.00000000000E+00  0.00000000000E+00  0.84424599590E+00  0.84424599590E+00  0.00000000000E+00 0.  1.
         22   -1    0    0    0    0 -0.00000000000E+00 -0.00000000000E+00 -0.19254092871E+02  0.19254092871E+02  0.00000000000E+00 0. -1.
          2    1    1    2  501    0 -0.11801179754E+01  0.34834932294E+01 -0.50883215735E+01  0.62784095480E+01  0.25500000000E-02 0. -1.
         -2    1    1    2    0  501  0.11801179754E+01 -0.34834932294E+01 -0.13321525302E+02  0.13819929319E+02  0.25500000000E-02 0.  1.
<mgrwt>
<rscale>  0 0.36779628E+01</rscale>
<asrwt>0</asrwt>
<pdfrwt beam="1">0</pdfrwt>
<pdfrwt beam="2">0</pdfrwt>
<totfact> 0.86155018E+11</totfact>
</mgrwt>
</event>
<event>
 4    1  0.3064748E+006  0.3023977E+01  0.7546771E-02  0.2514657E+00
         22   -1    0    0    0    0  0.00000000000E+00  0.00000000000E+00  0.44813153851E+01  0.44813153851E+01  0.00000000000E+00 0. -1.
         22   -1    0    0    0    0 -0.00000000000E+00 -0.00000000000E+00 -0.20406328041E+01  0.20406328041E+01  0.00000000000E+00 0.  1.
          2    1    1    2  501    0  0.52072004268E+00 -0.29788057052E+01  0.12023006302E+01  0.32542228105E+01  0.25500000000E-02 0.  1.
         -2    1    1    2    0  501 -0.52072004268E+00  0.29788057052E+01  0.12383819507E+01  0.32677253787E+01  0.25500000000E-02 0. -1.
<mgrwt>
<rscale>  0 0.30239774E+01</rscale>
<asrwt>0</asrwt>
<pdfrwt beam="1">0</pdfrwt>
<pdfrwt beam="2">0</pdfrwt>
<totfact> 0.18235383E+12</totfact>
</mgrwt>
</event>
<event>
 4    1  0.3064748E+006  0.2136290E+01  0.7546771E-02  0.2894435E+00
         22   -1    0    0    0    0  0.00000000000E+00  0.00000000000E+00  0.15039053061E+02  0.15039053061E+02  0.00000000000E+00 0. -1.
         22   -1    0    0    0    0 -0.00000000000E+00 -0.00000000000E+00 -0.55746481956E+00  0.55746481956E+00  0.00000000000E+00 0.  1.
          2    1    1    2  501    0  0.19584978016E+01  0.85323802001E+00  0.12504732478E+02  0.12685900426E+02  0.25500000000E-02 0. -1.
         -2    1    1    2    0  501 -0.19584978016E+01 -0.85323802001E+00  0.19768557634E+01  0.29106174550E+01  0.25500000000E-02 0.  1.
<mgrwt>
<rscale>  0 0.21362901E+01</rscale>
<asrwt>0</asrwt>
<pdfrwt beam="1">0</pdfrwt>
<pdfrwt beam="2">0</pdfrwt>
<totfact> 0.18732026E+12</totfact>
</mgrwt>
</event>
<event>
 4    1  0.3064748E+006  0.2917717E+01  0.7546771E-02  0.2548839E+00
         22   -1    0    0    0    0  0.00000000000E+00  0.00000000000E+00  0.19044352710E+02  0.19044352710E+02  0.00000000000E+00 0.  1.
         22   -1    0    0    0    0 -0.00000000000E+00 -0.00000000000E+00 -0.44850038023E+00  0.44850038023E+00  0.00000000000E+00 0. -1.
          2    1    1    2  501    0  0.38390377692E+00 -0.28923488313E+01  0.98592286438E+01  0.10281899621E+02  0.25500000000E-02 0.  1.
         -2    1    1    2    0  501 -0.38390377692E+00  0.28923488313E+01  0.87366236862E+01  0.92109534690E+01  0.25500000000E-02 0. -1.
<mgrwt>
<rscale>  0 0.29177166E+01</rscale>
<asrwt>0</asrwt>
<pdfrwt beam="1">0</pdfrwt>
<pdfrwt beam="2">0</pdfrwt>
<totfact> 0.17881557E+12</totfact>
</mgrwt>
</event>
<event>
 4    1  0.3064748E+006  0.2578960E+01  0.7546771E-02  0.2674710E+00
         22   -1    0    0    0    0  0.00000000000E+00  0.00000000000E+00  0.37409493209E+00  0.37409493209E+00  0.00000000000E+00 0.  1.
         22   -1    0    0    0    0 -0.00000000000E+00 -0.00000000000E+00 -0.18800353224E+02  0.18800353224E+02  0.00000000000E+00 0. -1.
          2    1    1    2  501    0  0.15201003517E+01  0.20833442354E+01 -0.69785420081E+01  0.74398308680E+01  0.25500000000E-02 0.  1.
         -2    1    1    2    0  501 -0.15201003517E+01 -0.20833442354E+01 -0.11447716284E+02  0.11734617289E+02  0.25500000000E-02 0. -1.
<mgrwt>
<rscale>  0 0.25789600E+01</rscale>
<asrwt>0</asrwt>
<pdfrwt beam="1">0</pdfrwt>
<pdfrwt beam="2">0</pdfrwt>
<totfact> 0.22287988E+12</totfact>
</mgrwt>
</event>
<event>
 4    1  0.3064748E+006  0.9626827E+01  0.7546771E-02  0.1794620E+00
         22   -1    0    0    0    0  0.00000000000E+00  0.00000000000E+00  0.43516295285E+02  0.43516295285E+02  0.00000000000E+00 0. -1.
         22   -1    0    0    0    0 -0.00000000000E+00 -0.00000000000E+00 -0.22105864663E+01  0.22105864663E+01  0.00000000000E+00 0.  1.
          2    1    1    2  501    0 -0.96268165582E+01 -0.14059426466E-01  0.25026850358E+02  0.26814530390E+02  0.25500000000E-02 0.  1.
         -2    1    1    2    0  501  0.96268165582E+01  0.14059426466E-01  0.16278858461E+02  0.18912351361E+02  0.25500000000E-02 0. -1.
<mgrwt>
<rscale>  0 0.96268272E+01</rscale>
<asrwt>0</asrwt>
<pdfrwt beam="1">0</pdfrwt>
<pdfrwt beam="2">0</pdfrwt>
<totfact> 0.10099314E+11</totfact>
</mgrwt>
</event>
<event>
 4    1  0.3064748E+006  0.2681391E+01  0.7546771E-02  0.2633588E+00
         22   -1    0    0    0    0  0.00000000000E+00  0.00000000000E+00  0.16433106451E+02  0.16433106451E+02  0.00000000000E+00 0.  1.
         22   -1    0    0    0    0 -0.00000000000E+00 -0.00000000000E+00 -0.45091338239E+00  0.45091338239E+00  0.00000000000E+00 0. -1.
          2    1    1    2  501    0  0.15541207502E+01  0.21850770522E+01  0.94458796548E+01  0.98190886535E+01  0.25500000000E-02 0.  1.
         -2    1    1    2    0  501 -0.15541207502E+01 -0.21850770522E+01  0.65363134137E+01  0.70649311798E+01  0.25500000000E-02 0. -1.
<mgrwt>
<rscale>  0 0.26813913E+01</rscale>
<asrwt>0</asrwt>
<pdfrwt beam="1">0</pdfrwt>
<pdfrwt beam="2">0</pdfrwt>
<totfact> 0.21339079E+12</totfact>
</mgrwt>
</event>
<event>
 4    1  0.3064748E+006  0.2670281E+01  0.7546771E-02  0.2637908E+00
         22   -1    0    0    0    0  0.00000000000E+00  0.00000000000E+00  0.16540540902E+01  0.16540540902E+01  0.00000000000E+00 0. -1.
         22   -1    0    0    0    0 -0.00000000000E+00 -0.00000000000E+00 -0.50566128748E+01  0.50566128748E+01  0.00000000000E+00 0.  1.
          2    1    1    2  501    0  0.13385727586E+01 -0.23105441882E+01 -0.41272460220E+00  0.27019880783E+01  0.25500000000E-02 0.  1.
         -2    1    1    2    0  501 -0.13385727586E+01  0.23105441882E+01 -0.29898341825E+01  0.40086788867E+01  0.25500000000E-02 0. -1.
<mgrwt>
<rscale>  0 0.26702805E+01</rscale>
<asrwt>0</asrwt>
<pdfrwt beam="1">0</pdfrwt>
<pdfrwt beam="2">0</pdfrwt>
<totfact> 0.20150207E+12</totfact>
</mgrwt>
</event>
<event>
 4    1  0.3064748E+006  0.2631153E+01  0.7546771E-02  0.2653389E+00
         22   -1    0    0    0    0  0.00000000000E+00  0.00000000000E+00  0.32915570294E+00  0.32915570294E+00  0.00000000000E+00 0.  1.
         22   -1    0    0    0    0 -0.00000000000E+00 -0.00000000000E+00 -0.27169697373E+02  0.27169697373E+02  0.00000000000E+00 0. -1.
          2    1    1    2  501    0  0.26133937276E+01 -0.30517337430E+00 -0.68855418678E+01  0.73711363357E+01  0.25500000000E-02 0.  1.
         -2    1    1    2    0  501 -0.26133937276E+01  0.30517337430E+00 -0.19954999802E+02  0.20127716740E+02  0.25500000000E-02 0. -1.
<mgrwt>
<rscale>  0 0.26311526E+01</rscale>
<asrwt>0</asrwt>
<pdfrwt beam="1">0</pdfrwt>
<pdfrwt beam="2">0</pdfrwt>
<totfact> 0.16212451E+12</totfact>
</mgrwt>
</event>
<event>
 4    1  0.3064748E+006  0.3049774E+01  0.7546771E-02  0.2506681E+00
         22   -1    0    0    0    0  0.00000000000E+00  0.00000000000E+00  0.98826486476E+01  0.98826486476E+01  0.00000000000E+00 0. -1.
         22   -1    0    0    0    0 -0.00000000000E+00 -0.00000000000E+00 -0.11159068171E+01  0.11159068171E+01  0.00000000000E+00 0.  1.
          2    1    1    2  501    0 -0.83402494707E+00  0.29335162486E+01  0.65595785874E+01  0.72338919635E+01  0.25500000000E-02 0. -1.
         -2    1    1    2    0  501  0.83402494707E+00 -0.29335162486E+01  0.22071632431E+01  0.37646635012E+01  0.25500000000E-02 0.  1.
<mgrwt>
<rscale>  0 0.30497740E+01</rscale>
<asrwt>0</asrwt>
<pdfrwt beam="1">0</pdfrwt>
<pdfrwt beam="2">0</pdfrwt>
<totfact> 0.14200173E+12</totfact>
</mgrwt>
</event>
<event>
 4    1  0.3064748E+006  0.2017966E+01  0.7546771E-02  0.2968703E+00
         22   -1    0    0    0    0  0.00000000000E+00  0.00000000000E+00  0.27851294217E+00  0.27851294217E+00  0.00000000000E+00 0.  1.
         22   -1    0    0    0    0 -0.00000000000E+00 -0.00000000000E+00 -0.16947793820E+02  0.16947793820E+02  0.00000000000E+00 0. -1.
          2    1    1    2  501    0 -0.12064708356E+01 -0.16175930492E+01 -0.51433341606E+01  0.55250404470E+01  0.25500000000E-02 0.  1.
         -2    1    1    2    0  501  0.12064708356E+01  0.16175930492E+01 -0.11525946717E+02  0.11701266315E+02  0.25500000000E-02 0. -1.
<mgrwt>
<rscale>  0 0.20179657E+01</rscale>
<asrwt>0</asrwt>
<pdfrwt beam="1">0</pdfrwt>
<pdfrwt beam="2">0</pdfrwt>
<totfact> 0.35295184E+12</totfact>
</mgrwt>
</event>
<event>
 4    1  0.3064748E+006  0.5003586E+01  0.7546771E-02  0.2122576E+00
         22   -1    0    0    0    0  0.00000000000E+00  0.00000000000E+00  0.54634149889E+01  0.54634149889E+01  0.00000000000E+00 0.  1.
         22   -1    0    0    0    0 -0.00000000000E+00 -0.00000000000E+00 -0.53141424948E+01  0.53141424948E+01  0.00000000000E+00 0. -1.
          2    1    1    2  501    0 -0.45508363492E+01 -0.20798448310E+01  0.20742012621E+01  0.54164733338E+01  0.25500000000E-02 0.  1.
         -2    1    1    2    0  501  0.45508363492E+01  0.20798448310E+01 -0.19249287680E+01  0.53610841499E+01  0.25500000000E-02 0. -1.
<mgrwt>
<rscale>  0 0.50035860E+01</rscale>
<asrwt>0</asrwt>
<pdfrwt beam="1">0</pdfrwt>
<pdfrwt beam="2">0</pdfrwt>
<totfact> 0.47011250E+11</totfact>
</mgrwt>
</event>
<event>
 4    1  0.3064748E+006  0.4791417E+01  0.7546771E-02  0.2148756E+00
         22   -1    0    0    0    0  0.00000000000E+00  0.00000000000E+00  0.16392436532E+01  0.16392436532E+01  0.00000000000E+00 0. -1.
         22   -1    0    0    0    0 -0.00000000000E+00 -0.00000000000E+00 -0.14044633436E+02  0.14044633436E+02  0.00000000000E+00 0.  1.
          2    1    1    2  501    0  0.42446172690E+01 -0.22228118002E+01 -0.66190600500E+01  0.81712685984E+01  0.25500000000E-02 0. -1.
         -2    1    1    2    0  501 -0.42446172690E+01  0.22228118002E+01 -0.57863297333E+01  0.75126084913E+01  0.25500000000E-02 0.  1.
<mgrwt>
<rscale>  0 0.47914168E+01</rscale>
<asrwt>0</asrwt>
<pdfrwt beam="1">0</pdfrwt>
<pdfrwt beam="2">0</pdfrwt>
<totfact> 0.59498700E+11</totfact>
</mgrwt>
</event>
<event>
 4    1  0.3064748E+006  0.3118908E+01  0.7546771E-02  0.2485889E+00
         22   -1    0    0    0    0  0.00000000000E+00  0.00000000000E+00  0.25384463457E+02  0.25384463457E+02  0.00000000000E+00 0.  1.
         22   -1    0    0    0    0 -0.00000000000E+00 -0.00000000000E+00 -0.10055642603E+01  0.10055642603E+01  0.00000000000E+00 0. -1.
          2    1    1    2  501    0 -0.24609306017E+01 -0.19160903126E+01  0.22570078427E+02  0.22784556792E+02  0.25500000000E-02 0.  1.
         -2    1    1    2    0  501  0.24609306017E+01  0.19160903126E+01  0.18088207696E+01  0.36054709251E+01  0.25500000000E-02 0. -1.
<mgrwt>
<rscale>  0 0.31189081E+01</rscale>
<asrwt>0</asrwt>
<pdfrwt beam="1">0</pdfrwt>
<pdfrwt beam="2">0</pdfrwt>
<totfact> 0.49914163E+11</totfact>
</mgrwt>
</event>
<event>
 4    1  0.3064748E+006  0.2606639E+01  0.7546771E-02  0.2663305E+00
         22   -1    0    0    0    0  0.00000000000E+00  0.00000000000E+00  0.28717482873E+02  0.28717482873E+02  0.00000000000E+00 0. -1.
         22   -1    0    0    0    0 -0.00000000000E+00 -0.00000000000E+00 -0.34958741088E+00  0.34958741088E+00  0.00000000000E+00 0.  1.
          2    1    1    2  501    0  0.49691787049E+00 -0.25588345322E+01  0.22446374545E+02  0.22597218816E+02  0.25500000000E-02 0. -1.
         -2    1    1    2    0  501 -0.49691787049E+00  0.25588345322E+01  0.59215209172E+01  0.64698514673E+01  0.25500000000E-02 0.  1.
<mgrwt>
<rscale>  0 0.26066392E+01</rscale>
<asrwt>0</asrwt>
<pdfrwt beam="1">0</pdfrwt>
<pdfrwt beam="2">0</pdfrwt>
<totfact> 0.14123330E+12</totfact>
</mgrwt>
</event>
<event>
 4    1  0.3064748E+006  0.2015324E+01  0.7546771E-02  0.2970459E+00
         22   -1    0    0    0    0  0.00000000000E+00  0.00000000000E+00  0.48797399762E+00  0.48797399762E+00  0.00000000000E+00 0.  1.
         22   -1    0    0    0    0 -0.00000000000E+00 -0.00000000000E+00 -0.84545090411E+01  0.84545090411E+01  0.00000000000E+00 0. -1.
          2    1    1    2  501    0  0.19956699035E+01 -0.28075734181E+00 -0.45403873679E+01  0.49675594613E+01  0.25500000000E-02 0. -1.
         -2    1    1    2    0  501 -0.19956699035E+01  0.28075734181E+00 -0.34261476756E+01  0.39749235774E+01  0.25500000000E-02 0.  1.
<mgrwt>
<rscale>  0 0.20153237E+01</rscale>
<asrwt>0</asrwt>
<pdfrwt beam="1">0</pdfrwt>
<pdfrwt beam="2">0</pdfrwt>
<totfact> 0.43876327E+12</totfact>
</mgrwt>
</event>
<event>
 4    1  0.3064748E+006  0.2042257E+01  0.7546771E-02  0.2952773E+00
         22   -1    0    0    0    0  0.00000000000E+00  0.00000000000E+00  0.32489887253E+01  0.32489887253E+01  0.00000000000E+00 0. -1.
         22   -1    0    0    0    0 -0.00000000000E+00 -0.00000000000E+00 -0.13395848006E+01  0.13395848006E+01  0.00000000000E+00 0.  1.
          2    1    1    2  501    0  0.14591899773E+01 -0.14288351084E+01  0.14232002063E+01  0.24892389372E+01  0.25500000000E-02 0. -1.
         -2    1    1    2    0  501 -0.14591899773E+01  0.14288351084E+01  0.48620371844E+00  0.20993345887E+01  0.25500000000E-02 0.  1.
<mgrwt>
<rscale>  0 0.20422565E+01</rscale>
<asrwt>0</asrwt>
<pdfrwt beam="1">0</pdfrwt>
<pdfrwt beam="2">0</pdfrwt>
<totfact> 0.43227852E+12</totfact>
</mgrwt>
</event>
<event>
 4    1  0.3064748E+006  0.2171629E+01  0.7546771E-02  0.2873776E+00
         22   -1    0    0    0    0  0.00000000000E+00  0.00000000000E+00  0.39776644595E+02  0.39776644595E+02  0.00000000000E+00 0.  1.
         22   -1    0    0    0    0 -0.00000000000E+00 -0.00000000000E+00 -0.12003663886E+00  0.12003663886E+00  0.00000000000E+00 0. -1.
          2    1    1    2  501    0  0.18222913118E+01  0.11811938624E+01  0.22039841762E+02  0.22146570749E+02  0.25500000000E-02 0.  1.
         -2    1    1    2    0  501 -0.18222913118E+01 -0.11811938624E+01  0.17616766194E+02  0.17750110485E+02  0.25500000000E-02 0. -1.
<mgrwt>
<rscale>  0 0.21716287E+01</rscale>
<asrwt>0</asrwt>
<pdfrwt beam="1">0</pdfrwt>
<pdfrwt beam="2">0</pdfrwt>
<totfact> 0.30646010E+12</totfact>
</mgrwt>
</event>
<event>
 4    1  0.3064748E+006  0.2241423E+01  0.7546771E-02  0.2834814E+00
         22   -1    0    0    0    0  0.00000000000E+00  0.00000000000E+00  0.21356942447E+01  0.21356942447E+01  0.00000000000E+00 0. -1.
         22   -1    0    0    0    0 -0.00000000000E+00 -0.00000000000E+00 -0.42841967767E+01  0.42841967767E+01  0.00000000000E+00 0.  1.
          2    1    1    2  501    0 -0.22410899702E+01  0.38556459743E-01  0.10812349070E+01  0.24885831877E+01  0.25500000000E-02 0. -1.
         -2    1    1    2    0  501  0.22410899702E+01 -0.38556459743E-01 -0.32297374391E+01  0.39313078337E+01  0.25500000000E-02 0.  1.
<mgrwt>
<rscale>  0 0.22414231E+01</rscale>
<asrwt>0</asrwt>
<pdfrwt beam="1">0</pdfrwt>
<pdfrwt beam="2">0</pdfrwt>
<totfact> 0.18240159E+12</totfact>
</mgrwt>
</event>
<event>
 4    1  0.3064748E+006  0.2107009E+01  0.7546771E-02  0.2912059E+00
         22   -1    0    0    0    0  0.00000000000E+00  0.00000000000E+00  0.45978752900E+01  0.45978752900E+01  0.00000000000E+00 0. -1.
         22   -1    0    0    0    0 -0.00000000000E+00 -0.00000000000E+00 -0.10224575032E+01  0.10224575032E+01  0.00000000000E+00 0.  1.
          2    1    1    2  501    0  0.52696790591E+00 -0.20400453569E+01  0.24506688899E+01  0.32319134800E+01  0.25500000000E-02 0. -1.
         -2    1    1    2    0  501 -0.52696790591E+00  0.20400453569E+01  0.11247488969E+01  0.23884193132E+01  0.25500000000E-02 0.  1.
<mgrwt>
<rscale>  0 0.21070090E+01</rscale>
<asrwt>0</asrwt>
<pdfrwt beam="1">0</pdfrwt>
<pdfrwt beam="2">0</pdfrwt>
<totfact> 0.39158258E+12</totfact>
</mgrwt>
</event>
<event>
 4    1  0.3064748E+006  0.2045312E+01  0.7546771E-02  0.2950795E+00
         22   -1    0    0    0    0  0.00000000000E+00  0.00000000000E+00  0.25794812524E+00  0.25794812524E+00  0.00000000000E+00 0.  1.
         22   -1    0    0    0    0 -0.00000000000E+00 -0.00000000000E+00 -0.18312347598E+02  0.18312347598E+02  0.00000000000E+00 0. -1.
          2    1    1    2  501    0 -0.32712625699E+00 -0.20189807186E+01 -0.58868213980E+01  0.62320115055E+01  0.25500000000E-02 0.  1.
         -2    1    1    2    0  501  0.32712625699E+00  0.20189807186E+01 -0.12167578075E+02  0.12338284218E+02  0.25500000000E-02 0. -1.
<mgrwt>
<rscale>  0 0.20453120E+01</rscale>
<asrwt>0</asrwt>
<pdfrwt beam="1">0</pdfrwt>
<pdfrwt beam="2">0</pdfrwt>
<totfact> 0.34940722E+12</totfact>
</mgrwt>
</event>
<event>
 4    1  0.3064748E+006  0.3604750E+01  0.7546771E-02  0.2359879E+00
         22   -1    0    0    0    0  0.00000000000E+00  0.00000000000E+00  0.25626449757E+02  0.25626449757E+02  0.00000000000E+00 0. -1.
         22   -1    0    0    0    0 -0.00000000000E+00 -0.00000000000E+00 -0.10382024156E+01  0.10382024156E+01  0.00000000000E+00 0.  1.
          2    1    1    2  501    0 -0.17287397981E+01  0.31631752205E+01  0.21830187802E+02  0.22125806759E+02  0.25500000000E-02 0. -1.
         -2    1    1    2    0  501  0.17287397981E+01 -0.31631752205E+01  0.27580595399E+01  0.45388454141E+01  0.25500000000E-02 0.  1.
<mgrwt>
<rscale>  0 0.36047504E+01</rscale>
<asrwt>0</asrwt>
<pdfrwt beam="1">0</pdfrwt>
<pdfrwt beam="2">0</pdfrwt>
<totfact> 0.47552717E+11</totfact>
</mgrwt>
</event>
<event>
 4    1  0.3064748E+006  0.2993828E+01  0.7546771E-02  0.2524134E+00
         22   -1    0    0    0    0  0.00000000000E+00  0.00000000000E+00  0.47391633877E+02  0.47391633877E+02  0.00000000000E+00 0.  1.
         22   -1    0    0    0    0 -0.00000000000E+00 -0.00000000000E+00 -0.21498059124E+01  0.21498059124E+01  0.00000000000E+00 0. -1.
          2    1    1    2  501    0  0.96290586302E+00  0.28347505086E+01  0.46276968790E+02  0.46373708554E+02  0.25500000000E-02 0.  1.
         -2    1    1    2    0  501 -0.96290586302E+00 -0.28347505086E+01 -0.10351408257E+01  0.31677312352E+01  0.25500000000E-02 0. -1.
<mgrwt>
<rscale>  0 0.29938278E+01</rscale>
<asrwt>0</asrwt>
<pdfrwt beam="1">0</pdfrwt>
<pdfrwt beam="2">0</pdfrwt>
<totfact> 0.93285039E+10</totfact>
</mgrwt>
</event>
<event>
 4    1  0.3064748E+006  0.2724993E+01  0.7546771E-02  0.2616946E+00
         22   -1    0    0    0    0  0.00000000000E+00  0.00000000000E+00  0.25979734043E+01  0.25979734043E+01  0.00000000000E+00 0.  1.
         22   -1    0    0    0    0 -0.00000000000E+00 -0.00000000000E+00 -0.31554692886E+01  0.31554692886E+01  0.00000000000E+00 0. -1.
          2    1    1    2  501    0  0.26845841442E+01  0.46753713625E+00  0.60417627399E+00  0.27911679408E+01  0.25500000000E-02 0. -1.
         -2    1    1    2    0  501 -0.26845841442E+01 -0.46753713625E+00 -0.11616721582E+01  0.29622747521E+01  0.25500000000E-02 0.  1.
<mgrwt>
<rscale>  0 0.27249935E+01</rscale>
<asrwt>0</asrwt>
<pdfrwt beam="1">0</pdfrwt>
<pdfrwt beam="2">0</pdfrwt>
<totfact> 0.20803540E+12</totfact>
</mgrwt>
</event>
<event>
 4    1  0.3064748E+006  0.3614091E+01  0.7546771E-02  0.2357748E+00
         22   -1    0    0    0    0  0.00000000000E+00  0.00000000000E+00  0.24199540541E+00  0.24199540541E+00  0.00000000000E+00 0.  1.
         22   -1    0    0    0    0 -0.00000000000E+00 -0.00000000000E+00 -0.72971013263E+02  0.72971013263E+02  0.00000000000E+00 0. -1.
          2    1    1    2  501    0 -0.57137680823E+00 -0.35686376738E+01 -0.55041917816E+02  0.55160442073E+02  0.25500000000E-02 0. -1.
         -2    1    1    2    0  501  0.57137680823E+00  0.35686376738E+01 -0.17687100041E+02  0.18052566595E+02  0.25500000000E-02 0.  1.
<mgrwt>
<rscale>  0 0.36140909E+01</rscale>
<asrwt>0</asrwt>
<pdfrwt beam="1">0</pdfrwt>
<pdfrwt beam="2">0</pdfrwt>
<totfact> 0.62731936E+11</totfact>
</mgrwt>
</event>
<event>
 4    1  0.3064748E+006  0.2105826E+01  0.7546771E-02  0.2912781E+00
         22   -1    0    0    0    0  0.00000000000E+00  0.00000000000E+00  0.35632173913E+00  0.35632173913E+00  0.00000000000E+00 0. -1.
         22   -1    0    0    0    0 -0.00000000000E+00 -0.00000000000E+00 -0.12450643475E+02  0.12450643475E+02  0.00000000000E+00 0.  1.
          2    1    1    2  501    0  0.21051470233E+01  0.53421995063E-01 -0.61807397923E+01  0.65296285333E+01  0.25500000000E-02 0.  1.
         -2    1    1    2    0  501 -0.21051470233E+01 -0.53421995063E-01 -0.59135819433E+01  0.62773366806E+01  0.25500000000E-02 0. -1.
<mgrwt>
<rscale>  0 0.21058263E+01</rscale>
<asrwt>0</asrwt>
<pdfrwt beam="1">0</pdfrwt>
<pdfrwt beam="2">0</pdfrwt>
<totfact> 0.39108714E+12</totfact>
</mgrwt>
</event>
<event>
 4    1  0.3064748E+006  0.2033763E+01  0.7546771E-02  0.2958301E+00
         22   -1    0    0    0    0  0.00000000000E+00  0.00000000000E+00  0.19746410412E+01  0.19746410412E+01  0.00000000000E+00 0.  1.
         22   -1    0    0    0    0 -0.00000000000E+00 -0.00000000000E+00 -0.67191218039E+01  0.67191218039E+01  0.00000000000E+00 0. -1.
          2    1    1    2  501    0 -0.29985813299E+00 -0.20115348632E+01  0.12339804493E+01  0.23788446056E+01  0.25500000000E-02 0.  1.
         -2    1    1    2    0  501  0.29985813299E+00  0.20115348632E+01 -0.59784612120E+01  0.63149182395E+01  0.25500000000E-02 0. -1.
<mgrwt>
<rscale>  0 0.20337635E+01</rscale>
<asrwt>0</asrwt>
<pdfrwt beam="1">0</pdfrwt>
<pdfrwt beam="2">0</pdfrwt>
<totfact> 0.11709534E+12</totfact>
</mgrwt>
</event>
<event>
 4    1  0.3064748E+006  0.2053235E+01  0.7546771E-02  0.2945694E+00
         22   -1    0    0    0    0  0.00000000000E+00  0.00000000000E+00  0.40515081638E+02  0.40515081638E+02  0.00000000000E+00 0. -1.
         22   -1    0    0    0    0 -0.00000000000E+00 -0.00000000000E+00 -0.11353095396E+00  0.11353095396E+00  0.00000000000E+00 0.  1.
          2    1    1    2  501    0  0.14377344138E+01 -0.14658401610E+01  0.14331707090E+02  0.14478038619E+02  0.25500000000E-02 0.  1.
         -2    1    1    2    0  501 -0.14377344138E+01  0.14658401610E+01  0.26069843594E+02  0.26150573973E+02  0.25500000000E-02 0. -1.
<mgrwt>
<rscale>  0 0.20532350E+01</rscale>
<asrwt>0</asrwt>
<pdfrwt beam="1">0</pdfrwt>
<pdfrwt beam="2">0</pdfrwt>
<totfact> 0.31828673E+12</totfact>
</mgrwt>
</event>
<event>
 4    1  0.3064748E+006  0.2745081E+01  0.7546771E-02  0.2609442E+00
         22   -1    0    0    0    0  0.00000000000E+00  0.00000000000E+00  0.92515426238E+00  0.92515426238E+00  0.00000000000E+00 0. -1.
         22   -1    0    0    0    0 -0.00000000000E+00 -0.00000000000E+00 -0.99432866736E+01  0.99432866736E+01  0.00000000000E+00 0.  1.
          2    1    1    2  501    0 -0.21031325615E+00  0.27370115580E+01 -0.21981184691E+01  0.35167023248E+01  0.25500000000E-02 0. -1.
         -2    1    1    2    0  501  0.21031325615E+00 -0.27370115580E+01 -0.68200139421E+01  0.73517386112E+01  0.25500000000E-02 0.  1.
<mgrwt>
<rscale>  0 0.27450811E+01</rscale>
<asrwt>0</asrwt>
<pdfrwt beam="1">0</pdfrwt>
<pdfrwt beam="2">0</pdfrwt>
<totfact> 0.17461123E+12</totfact>
</mgrwt>
</event>
<event>
 4    1  0.3064748E+006  0.2830339E+01  0.7546771E-02  0.2578675E+00
         22   -1    0    0    0    0  0.00000000000E+00  0.00000000000E+00  0.94417565738E+01  0.94417565738E+01  0.00000000000E+00 0.  1.
         22   -1    0    0    0    0 -0.00000000000E+00 -0.00000000000E+00 -0.23686289233E+01  0.23686289233E+01  0.00000000000E+00 0. -1.
          2    1    1    2  501    0  0.19363347235E+01  0.20643207227E+01  0.82673521583E+01  0.87384169287E+01  0.25500000000E-02 0.  1.
         -2    1    1    2    0  501 -0.19363347235E+01 -0.20643207227E+01 -0.11942245078E+01  0.30719685684E+01  0.25500000000E-02 0. -1.
<mgrwt>
<rscale>  0 0.28303390E+01</rscale>
<asrwt>0</asrwt>
<pdfrwt beam="1">0</pdfrwt>
<pdfrwt beam="2">0</pdfrwt>
<totfact> 0.63022772E+11</totfact>
</mgrwt>
</event>
<event>
 4    1  0.3064748E+006  0.2292667E+01  0.7546771E-02  0.2807652E+00
         22   -1    0    0    0    0  0.00000000000E+00  0.00000000000E+00  0.14904927054E+01  0.14904927054E+01  0.00000000000E+00 0. -1.
         22   -1    0    0    0    0 -0.00000000000E+00 -0.00000000000E+00 -0.35968435805E+01  0.35968435805E+01  0.00000000000E+00 0.  1.
          2    1    1    2  501    0  0.21010062571E+01 -0.91765352287E+00 -0.14087299883E+01  0.26908812614E+01  0.25500000000E-02 0. -1.
         -2    1    1    2    0  501 -0.21010062571E+01  0.91765352287E+00 -0.69762088675E+00  0.23964550245E+01  0.25500000000E-02 0.  1.
<mgrwt>
<rscale>  0 0.22926670E+01</rscale>
<asrwt>0</asrwt>
<pdfrwt beam="1">0</pdfrwt>
<pdfrwt beam="2">0</pdfrwt>
<totfact> 0.33941972E+12</totfact>
</mgrwt>
</event>
<event>
 4    1  0.3064748E+006  0.2136888E+01  0.7546771E-02  0.2894079E+00
         22   -1    0    0    0    0  0.00000000000E+00  0.00000000000E+00  0.14607218298E+02  0.14607218298E+02  0.00000000000E+00 0. -1.
         22   -1    0    0    0    0 -0.00000000000E+00 -0.00000000000E+00 -0.41445821876E+00  0.41445821876E+00  0.00000000000E+00 0.  1.
          2    1    1    2  501    0  0.21248546433E+01 -0.22644551645E+00  0.10819740994E+02  0.11028739117E+02  0.25500000000E-02 0. -1.
         -2    1    1    2    0  501 -0.21248546433E+01  0.22644551645E+00  0.33730190846E+01  0.39929373993E+01  0.25500000000E-02 0.  1.
<mgrwt>
<rscale>  0 0.21368882E+01</rscale>
<asrwt>0</asrwt>
<pdfrwt beam="1">0</pdfrwt>
<pdfrwt beam="2">0</pdfrwt>
<totfact> 0.27129423E+12</totfact>
</mgrwt>
</event>
<event>
 4    1  0.3064748E+006  0.2058969E+01  0.7546771E-02  0.2942026E+00
         22   -1    0    0    0    0  0.00000000000E+00  0.00000000000E+00  0.45348658944E+00  0.45348658944E+00  0.00000000000E+00 0.  1.
         22   -1    0    0    0    0 -0.00000000000E+00 -0.00000000000E+00 -0.11127063135E+02  0.11127063135E+02  0.00000000000E+00 0. -1.
          2    1    1    2  501    0  0.29794197580E+00  0.20372966783E+01 -0.30217336884E+01  0.36565322592E+01  0.25500000000E-02 0.  1.
         -2    1    1    2    0  501 -0.29794197580E+00 -0.20372966783E+01 -0.76518428570E+01  0.79240174651E+01  0.25500000000E-02 0. -1.
<mgrwt>
<rscale>  0 0.20589691E+01</rscale>
<asrwt>0</asrwt>
<pdfrwt beam="1">0</pdfrwt>
<pdfrwt beam="2">0</pdfrwt>
<totfact> 0.34186403E+12</totfact>
</mgrwt>
</event>
<event>
 4    1  0.3064748E+006  0.3668512E+01  0.7546771E-02  0.2345522E+00
         22   -1    0    0    0    0  0.00000000000E+00  0.00000000000E+00  0.11112352683E+02  0.11112352683E+02  0.00000000000E+00 0.  1.
         22   -1    0    0    0    0 -0.00000000000E+00 -0.00000000000E+00 -0.20355982544E+01  0.20355982544E+01  0.00000000000E+00 0. -1.
          2    1    1    2  501    0  0.34244444702E+01 -0.13157328808E+01  0.87222785893E+01  0.94623529439E+01  0.25500000000E-02 0.  1.
         -2    1    1    2    0  501 -0.34244444702E+01  0.13157328808E+01  0.35447583880E+00  0.36855979930E+01  0.25500000000E-02 0. -1.
<mgrwt>
<rscale>  0 0.36685119E+01</rscale>
<asrwt>0</asrwt>
<pdfrwt beam="1">0</pdfrwt>
<pdfrwt beam="2">0</pdfrwt>
<totfact> 0.61669646E+11</totfact>
</mgrwt>
</event>
<event>
 4    1  0.3064748E+006  0.2005951E+01  0.7546771E-02  0.2976722E+00
         22   -1    0    0    0    0  0.00000000000E+00  0.00000000000E+00  0.35387032456E+01  0.35387032456E+01  0.00000000000E+00 0. -1.
         22   -1    0    0    0    0 -0.00000000000E+00 -0.00000000000E+00 -0.13221329927E+01  0.13221329927E+01  0.00000000000E+00 0.  1.
          2    1    1    2  501    0  0.19763410583E+01 -0.34337593572E+00  0.19905192200E+00  0.20158023669E+01  0.25500000000E-02 0.  1.
         -2    1    1    2    0  501 -0.19763410583E+01  0.34337593572E+00  0.20175183308E+01  0.28450338715E+01  0.25500000000E-02 0. -1.
<mgrwt>
<rscale>  0 0.20059505E+01</rscale>
<asrwt>0</asrwt>
<pdfrwt beam="1">0</pdfrwt>
<pdfrwt beam="2">0</pdfrwt>
<totfact> 0.39703526E+12</totfact>
</mgrwt>
</event>
<event>
 4    1  0.3064748E+006  0.2034927E+01  0.7546771E-02  0.2957541E+00
         22   -1    0    0    0    0  0.00000000000E+00  0.00000000000E+00  0.14139035937E+00  0.14139035937E+00  0.00000000000E+00 0.  1.
         22   -1    0    0    0    0 -0.00000000000E+00 -0.00000000000E+00 -0.43634889784E+02  0.43634889784E+02  0.00000000000E+00 0. -1.
          2    1    1    2  501    0  0.16201855833E+01 -0.12312273343E+01 -0.91956200419E+01  0.94180866704E+01  0.25500000000E-02 0. -1.
         -2    1    1    2    0  501 -0.16201855833E+01  0.12312273343E+01 -0.34297879382E+02  0.34358193473E+02  0.25500000000E-02 0.  1.
<mgrwt>
<rscale>  0 0.20349272E+01</rscale>
<asrwt>0</asrwt>
<pdfrwt beam="1">0</pdfrwt>
<pdfrwt beam="2">0</pdfrwt>
<totfact> 0.22651085E+12</totfact>
</mgrwt>
</event>
<event>
 4    1  0.3064748E+006  0.2345194E+01  0.7546771E-02  0.2780980E+00
         22   -1    0    0    0    0  0.00000000000E+00  0.00000000000E+00  0.32802342970E+01  0.32802342970E+01  0.00000000000E+00 0. -1.
         22   -1    0    0    0    0 -0.00000000000E+00 -0.00000000000E+00 -0.16986043973E+01  0.16986043973E+01  0.00000000000E+00 0.  1.
          2    1    1    2  501    0  0.23253063247E+01 -0.30475839683E+00  0.50805114073E+00  0.23995936423E+01  0.25500000000E-02 0.  1.
         -2    1    1    2    0  501 -0.23253063247E+01  0.30475839683E+00  0.10735787590E+01  0.25792450520E+01  0.25500000000E-02 0. -1.
<mgrwt>
<rscale>  0 0.23451937E+01</rscale>
<asrwt>0</asrwt>
<pdfrwt beam="1">0</pdfrwt>
<pdfrwt beam="2">0</pdfrwt>
<totfact> 0.32527810E+12</totfact>
</mgrwt>
</event>
<event>
 4    1  0.3064748E+006  0.3350089E+01  0.7546771E-02  0.2421925E+00
         22   -1    0    0    0    0  0.00000000000E+00  0.00000000000E+00  0.86893761703E+02  0.86893761703E+02  0.00000000000E+00 0.  1.
         22   -1    0    0    0    0 -0.00000000000E+00 -0.00000000000E+00 -0.13712296975E+00  0.13712296975E+00  0.00000000000E+00 0. -1.
          2    1    1    2  501    0  0.33493722239E+01  0.69248156963E-01  0.32891159516E+02  0.33061328927E+02  0.25500000000E-02 0. -1.
         -2    1    1    2    0  501 -0.33493722239E+01 -0.69248156963E-01  0.53865479217E+02  0.53969555745E+02  0.25500000000E-02 0.  1.
<mgrwt>
<rscale>  0 0.33500890E+01</rscale>
<asrwt>0</asrwt>
<pdfrwt beam="1">0</pdfrwt>
<pdfrwt beam="2">0</pdfrwt>
<totfact> 0.92941142E+11</totfact>
</mgrwt>
</event>
<event>
 4    1  0.3064748E+006  0.3742870E+01  0.7546771E-02  0.2329316E+00
         22   -1    0    0    0    0  0.00000000000E+00  0.00000000000E+00  0.49297894930E+01  0.49297894930E+01  0.00000000000E+00 0.  1.
         22   -1    0    0    0    0 -0.00000000000E+00 -0.00000000000E+00 -0.28756858310E+01  0.28756858310E+01  0.00000000000E+00 0. -1.
          2    1    1    2  501    0  0.57883457932E+00 -0.36978403712E+01  0.60289899475E+00  0.37911167987E+01  0.25500000000E-02 0.  1.
         -2    1    1    2    0  501 -0.57883457932E+00  0.36978403712E+01  0.14512046672E+01  0.40143585253E+01  0.25500000000E-02 0. -1.
<mgrwt>
<rscale>  0 0.37428705E+01</rscale>
<asrwt>0</asrwt>
<pdfrwt beam="1">0</pdfrwt>
<pdfrwt beam="2">0</pdfrwt>
<totfact> 0.10934258E+12</totfact>
</mgrwt>
</event>
<event>
 4    1  0.3064748E+006  0.4074032E+01  0.7546771E-02  0.2263363E+00
         22   -1    0    0    0    0  0.00000000000E+00  0.00000000000E+00  0.21808377708E+02  0.21808377708E+02  0.00000000000E+00 0. -1.
         22   -1    0    0    0    0 -0.00000000000E+00 -0.00000000000E+00 -0.37330962839E+01  0.37330962839E+01  0.00000000000E+00 0.  1.
          2    1    1    2  501    0  0.30528934520E+01 -0.26976971741E+01  0.20432463564E+02  0.20834665879E+02  0.25500000000E-02 0. -1.
         -2    1    1    2    0  501 -0.30528934520E+01  0.26976971741E+01 -0.23571821400E+01  0.47068081134E+01  0.25500000000E-02 0.  1.
<mgrwt>
<rscale>  0 0.40740318E+01</rscale>
<asrwt>0</asrwt>
<pdfrwt beam="1">0</pdfrwt>
<pdfrwt beam="2">0</pdfrwt>
<totfact> 0.13240893E+11</totfact>
</mgrwt>
</event>
<event>
 4    1  0.3064748E+006  0.2567926E+01  0.7546771E-02  0.2679321E+00
         22   -1    0    0    0    0  0.00000000000E+00  0.00000000000E+00  0.19050279112E+01  0.19050279112E+01  0.00000000000E+00 0. -1.
         22   -1    0    0    0    0 -0.00000000000E+00 -0.00000000000E+00 -0.36273533380E+01  0.36273533380E+01  0.00000000000E+00 0.  1.
          2    1    1    2  501    0 -0.23522289212E+01  0.10301724316E+01 -0.26965941694E+00  0.25820454760E+01  0.25500000000E-02 0.  1.
         -2    1    1    2    0  501  0.23522289212E+01 -0.10301724316E+01 -0.14526660098E+01  0.29503357733E+01  0.25500000000E-02 0. -1.
<mgrwt>
<rscale>  0 0.25679257E+01</rscale>
<asrwt>0</asrwt>
<pdfrwt beam="1">0</pdfrwt>
<pdfrwt beam="2">0</pdfrwt>
<totfact> 0.25323923E+12</totfact>
</mgrwt>
</event>
<event>
 4    1  0.3064748E+006  0.6705398E+01  0.7546771E-02  0.1961660E+00
         22   -1    0    0    0    0  0.00000000000E+00  0.00000000000E+00  0.71265669409E+02  0.71265669409E+02  0.00000000000E+00 0.  1.
         22   -1    0    0    0    0 -0.00000000000E+00 -0.00000000000E+00 -0.13751820638E+01  0.13751820638E+01  0.00000000000E+00 0. -1.
          2    1    1    2  501    0  0.22533303959E+01 -0.63154462361E+01  0.61665222420E+02  0.62028719330E+02  0.25500000000E-02 0.  1.
         -2    1    1    2    0  501 -0.22533303959E+01  0.63154462361E+01  0.82252649245E+01  0.10612132143E+02  0.25500000000E-02 0. -1.
<mgrwt>
<rscale>  0 0.67053982E+01</rscale>
<asrwt>0</asrwt>
<pdfrwt beam="1">0</pdfrwt>
<pdfrwt beam="2">0</pdfrwt>
<totfact> 0.90598032E+10</totfact>
</mgrwt>
</event>
<event>
 4    1  0.3064748E+006  0.3736736E+01  0.7546771E-02  0.2330632E+00
         22   -1    0    0    0    0  0.00000000000E+00  0.00000000000E+00  0.17046265828E+02  0.17046265828E+02  0.00000000000E+00 0.  1.
         22   -1    0    0    0    0 -0.00000000000E+00 -0.00000000000E+00 -0.10751289070E+01  0.10751289070E+01  0.00000000000E+00 0. -1.
          2    1    1    2  501    0  0.12074740405E+01  0.35362687633E+01  0.12406827669E+02  0.12957336518E+02  0.25500000000E-02 0.  1.
         -2    1    1    2    0  501 -0.12074740405E+01 -0.35362687633E+01  0.35643092519E+01  0.51640582172E+01  0.25500000000E-02 0. -1.
<mgrwt>
<rscale>  0 0.37367361E+01</rscale>
<asrwt>0</asrwt>
<pdfrwt beam="1">0</pdfrwt>
<pdfrwt beam="2">0</pdfrwt>
<totfact> 0.76055796E+11</totfact>
</mgrwt>
</event>
<event>
 4    1  0.3064748E+006  0.4029512E+01  0.7546771E-02  0.2271689E+00
         22   -1    0    0    0    0  0.00000000000E+00  0.00000000000E+00  0.17855973547E+02  0.17855973547E+02  0.00000000000E+00 0.  1.
         22   -1    0    0    0    0 -0.00000000000E+00 -0.00000000000E+00 -0.94720836224E+00  0.94720836224E+00  0.00000000000E+00 0. -1.
          2    1    1    2  501    0  0.38456011638E+01  0.12034576320E+01  0.65743016672E+01  0.77109277974E+01  0.25500000000E-02 0. -1.
         -2    1    1    2    0  501 -0.38456011638E+01 -0.12034576320E+01  0.10334463517E+02  0.11092254112E+02  0.25500000000E-02 0.  1.
<mgrwt>
<rscale>  0 0.40295118E+01</rscale>
<asrwt>0</asrwt>
<pdfrwt beam="1">0</pdfrwt>
<pdfrwt beam="2">0</pdfrwt>
<totfact> 0.82984711E+11</totfact>
</mgrwt>
</event>
<event>
 4    1  0.3064748E+006  0.2425512E+01  0.7546771E-02  0.2742309E+00
         22   -1    0    0    0    0  0.00000000000E+00  0.00000000000E+00  0.37104361242E+00  0.37104361242E+00  0.00000000000E+00 0. -1.
         22   -1    0    0    0    0 -0.00000000000E+00 -0.00000000000E+00 -0.16355910192E+02  0.16355910192E+02  0.00000000000E+00 0.  1.
          2    1    1    2  501    0 -0.83739312294E+00 -0.22763729845E+01 -0.65296415375E+01  0.69655815491E+01  0.25500000000E-02 0.  1.
         -2    1    1    2    0  501  0.83739312294E+00  0.22763729845E+01 -0.94552250419E+01  0.97613722551E+01  0.25500000000E-02 0. -1.
<mgrwt>
<rscale>  0 0.24255118E+01</rscale>
<asrwt>0</asrwt>
<pdfrwt beam="1">0</pdfrwt>
<pdfrwt beam="2">0</pdfrwt>
<totfact> 0.26731804E+12</totfact>
</mgrwt>
</event>
<event>
 4    1  0.3064748E+006  0.2634014E+01  0.7546771E-02  0.2652242E+00
         22   -1    0    0    0    0  0.00000000000E+00  0.00000000000E+00  0.66292967045E+01  0.66292967045E+01  0.00000000000E+00 0.  1.
         22   -1    0    0    0    0 -0.00000000000E+00 -0.00000000000E+00 -0.49516933957E+01  0.49516933957E+01  0.00000000000E+00 0. -1.
          2    1    1    2  501    0 -0.93854286676E+00  0.24611295959E+01  0.59810868602E+01  0.65353980853E+01  0.25500000000E-02 0.  1.
         -2    1    1    2    0  501  0.93854286676E+00 -0.24611295959E+01 -0.43034835514E+01  0.50455920149E+01  0.25500000000E-02 0. -1.
<mgrwt>
<rscale>  0 0.26340137E+01</rscale>
<asrwt>0</asrwt>
<pdfrwt beam="1">0</pdfrwt>
<pdfrwt beam="2">0</pdfrwt>
<totfact> 0.40600936E+11</totfact>
</mgrwt>
</event>
<event>
 4    1  0.3064748E+006  0.2311958E+01  0.7546771E-02  0.2797723E+00
         22   -1    0    0    0    0  0.00000000000E+00  0.00000000000E+00  0.87044977242E-01  0.87044977242E-01  0.00000000000E+00 0.  1.
         22   -1    0    0    0    0 -0.00000000000E+00 -0.00000000000E+00 -0.10245884902E+03  0.10245884902E+03  0.00000000000E+00 0. -1.
          2    1    1    2  501    0 -0.21830213353E+01  0.76128988161E+00 -0.18730938957E+02  0.18873082025E+02  0.25500000000E-02 0.  1.
         -2    1    1    2    0  501  0.21830213353E+01 -0.76128988161E+00 -0.83640865083E+02  0.83672811969E+02  0.25500000000E-02 0. -1.
<mgrwt>
<rscale>  0 0.23119582E+01</rscale>
<asrwt>0</asrwt>
<pdfrwt beam="1">0</pdfrwt>
<pdfrwt beam="2">0</pdfrwt>
<totfact> 0.12211587E+12</totfact>
</mgrwt>
</event>
<event>
 4    1  0.3064748E+006  0.2376319E+01  0.7546771E-02  0.2765703E+00
         22   -1    0    0    0    0  0.00000000000E+00  0.00000000000E+00  0.90269671642E+00  0.90269671642E+00  0.00000000000E+00 0.  1.
         22   -1    0    0    0    0 -0.00000000000E+00 -0.00000000000E+00 -0.82233752922E+01  0.82233752922E+01  0.00000000000E+00 0. -1.
          2    1    1    2  501    0  0.23748582749E+01  0.83260247196E-01 -0.14282122288E+01  0.27724863873E+01  0.25500000000E-02 0.  1.
         -2    1    1    2    0  501 -0.23748582749E+01 -0.83260247196E-01 -0.58924663470E+01  0.63535856213E+01  0.25500000000E-02 0. -1.
<mgrwt>
<rscale>  0 0.23763187E+01</rscale>
<asrwt>0</asrwt>
<pdfrwt beam="1">0</pdfrwt>
<pdfrwt beam="2">0</pdfrwt>
<totfact> 0.22581059E+12</totfact>
</mgrwt>
</event>
<event>
 4    1  0.3064748E+006  0.2124429E+01  0.7546771E-02  0.2901517E+00
         22   -1    0    0    0    0  0.00000000000E+00  0.00000000000E+00  0.56927795099E+01  0.56927795099E+01  0.00000000000E+00 0. -1.
         22   -1    0    0    0    0 -0.00000000000E+00 -0.00000000000E+00 -0.83127749403E+00  0.83127749403E+00  0.00000000000E+00 0.  1.
          2    1    1    2  501    0 -0.13321755909E+01 -0.16548415359E+01  0.31326176265E+01  0.37850352720E+01  0.25500000000E-02 0.  1.
         -2    1    1    2    0  501  0.13321755909E+01  0.16548415359E+01  0.17288843894E+01  0.27390217320E+01  0.25500000000E-02 0. -1.
<mgrwt>
<rscale>  0 0.21244291E+01</rscale>
<asrwt>0</asrwt>
<pdfrwt beam="1">0</pdfrwt>
<pdfrwt beam="2">0</pdfrwt>
<totfact> 0.38497320E+12</totfact>
</mgrwt>
</event>
<event>
 4    1  0.3064748E+006  0.5176843E+01  0.7546771E-02  0.2102468E+00
         22   -1    0    0    0    0  0.00000000000E+00  0.00000000000E+00  0.10227431541E+02  0.10227431541E+02  0.00000000000E+00 0.  1.
         22   -1    0    0    0    0 -0.00000000000E+00 -0.00000000000E+00 -0.26692057457E+01  0.26692057457E+01  0.00000000000E+00 0. -1.
          2    1    1    2  501    0  0.46752544777E+01 -0.22229908456E+01  0.46512907465E+01  0.69594687184E+01  0.25500000000E-02 0. -1.
         -2    1    1    2    0  501 -0.46752544777E+01  0.22229908456E+01  0.29069350490E+01  0.59371685687E+01  0.25500000000E-02 0.  1.
<mgrwt>
<rscale>  0 0.51768426E+01</rscale>
<asrwt>0</asrwt>
<pdfrwt beam="1">0</pdfrwt>
<pdfrwt beam="2">0</pdfrwt>
<totfact> 0.49789196E+11</totfact>
</mgrwt>
</event>
<event>
 4    1  0.3064748E+006  0.3174755E+01  0.7546771E-02  0.2469683E+00
         22   -1    0    0    0    0  0.00000000000E+00  0.00000000000E+00  0.89787205413E+00  0.89787205413E+00  0.00000000000E+00 0. -1.
         22   -1    0    0    0    0 -0.00000000000E+00 -0.00000000000E+00 -0.13340502474E+02  0.13340502474E+02  0.00000000000E+00 0.  1.
          2    1    1    2  501    0 -0.11082470340E+01  0.29750383208E+01 -0.33866692877E+01  0.46420469478E+01  0.25500000000E-02 0. -1.
         -2    1    1    2    0  501  0.11082470340E+01 -0.29750383208E+01 -0.90559611318E+01  0.95963275800E+01  0.25500000000E-02 0.  1.
<mgrwt>
<rscale>  0 0.31747553E+01</rscale>
<asrwt>0</asrwt>
<pdfrwt beam="1">0</pdfrwt>
<pdfrwt beam="2">0</pdfrwt>
<totfact> 0.12632825E+12</totfact>
</mgrwt>
</event>
<event>
 4    1  0.3064748E+006  0.2055080E+01  0.7546771E-02  0.2944512E+00
         22   -1    0    0    0    0  0.00000000000E+00  0.00000000000E+00  0.33462281628E+01  0.33462281628E+01  0.00000000000E+00 0.  1.
         22   -1    0    0    0    0 -0.00000000000E+00 -0.00000000000E+00 -0.49768865858E+01  0.49768865858E+01  0.00000000000E+00 0. -1.
          2    1    1    2  501    0 -0.75461299851E+00 -0.19115195173E+01  0.27800322472E+01  0.34571568435E+01  0.25500000000E-02 0.  1.
         -2    1    1    2    0  501  0.75461299851E+00  0.19115195173E+01 -0.44106906702E+01  0.48659579050E+01  0.25500000000E-02 0. -1.
<mgrwt>
<rscale>  0 0.20550801E+01</rscale>
<asrwt>0</asrwt>
<pdfrwt beam="1">0</pdfrwt>
<pdfrwt beam="2">0</pdfrwt>
<totfact> 0.90553856E+11</totfact>
</mgrwt>
</event>
<event>
 4    1  0.3064748E+006  0.2080452E+01  0.7546771E-02  0.2928458E+00
         22   -1    0    0    0    0  0.00000000000E+00  0.00000000000E+00  0.74904292295E-01  0.74904292295E-01  0.00000000000E+00 0.  1.
         22   -1    0    0    0    0 -0.00000000000E+00 -0.00000000000E+00 -0.58601980767E+02  0.58601980767E+02  0.00000000000E+00 0. -1.
          2    1    1    2  501    0  0.20454001563E+01 -0.38028156656E+00 -0.32729368401E+02  0.32795424045E+02  0.25500000000E-02 0. -1.
         -2    1    1    2    0  501 -0.20454001563E+01  0.38028156656E+00 -0.25797708074E+02  0.25881461014E+02  0.25500000000E-02 0.  1.
<mgrwt>
<rscale>  0 0.20804524E+01</rscale>
<asrwt>0</asrwt>
<pdfrwt beam="1">0</pdfrwt>
<pdfrwt beam="2">0</pdfrwt>
<totfact> 0.31012063E+12</totfact>
</mgrwt>
</event>
<event>
 4    1  0.3064748E+006  0.2409478E+01  0.7546771E-02  0.2749835E+00
         22   -1    0    0    0    0  0.00000000000E+00  0.00000000000E+00  0.44566638960E+02  0.44566638960E+02  0.00000000000E+00 0. -1.
         22   -1    0    0    0    0 -0.00000000000E+00 -0.00000000000E+00 -0.26932163405E+00  0.26932163405E+00  0.00000000000E+00 0.  1.
          2    1    1    2  501    0 -0.22928452565E+01  0.74056483041E+00  0.38257077112E+02  0.38332877942E+02  0.25500000000E-02 0.  1.
         -2    1    1    2    0  501  0.22928452565E+01 -0.74056483041E+00  0.60402402138E+01  0.65030826522E+01  0.25500000000E-02 0. -1.
<mgrwt>
<rscale>  0 0.24094776E+01</rscale>
<asrwt>0</asrwt>
<pdfrwt beam="1">0</pdfrwt>
<pdfrwt beam="2">0</pdfrwt>
<totfact> 0.10740560E+12</totfact>
</mgrwt>
</event>
<event>
 4    1  0.3064748E+006  0.3251180E+01  0.7546771E-02  0.2448307E+00
         22   -1    0    0    0    0  0.00000000000E+00  0.00000000000E+00  0.16579203636E+01  0.16579203636E+01  0.00000000000E+00 0.  1.
         22   -1    0    0    0    0 -0.00000000000E+00 -0.00000000000E+00 -0.64084708453E+01  0.64084708453E+01  0.00000000000E+00 0. -1.
          2    1    1    2  501    0  0.25232639574E+01 -0.20501963390E+01 -0.26642996556E+01  0.42034111367E+01  0.25500000000E-02 0. -1.
         -2    1    1    2    0  501 -0.25232639574E+01  0.20501963390E+01 -0.20862508262E+01  0.38629800723E+01  0.25500000000E-02 0.  1.
<mgrwt>
<rscale>  0 0.32511802E+01</rscale>
<asrwt>0</asrwt>
<pdfrwt beam="1">0</pdfrwt>
<pdfrwt beam="2">0</pdfrwt>
<totfact> 0.15164325E+12</totfact>
</mgrwt>
</event>
<event>
 4    1  0.3064748E+006  0.3030177E+01  0.7546771E-02  0.2512729E+00
         22   -1    0    0    0    0  0.00000000000E+00  0.00000000000E+00  0.31639067864E+02  0.31639067864E+02  0.00000000000E+00 0.  1.
         22   -1    0    0    0    0 -0.00000000000E+00 -0.00000000000E+00 -0.34398654352E+00  0.34398654352E+00  0.00000000000E+00 0. -1.
          2    1    1    2  501    0 -0.15898690492E+01 -0.25795899274E+01  0.21970430348E+02  0.22178408057E+02  0.25500000000E-02 0.  1.
         -2    1    1    2    0  501  0.15898690492E+01  0.25795899274E+01  0.93246509724E+01  0.98046463499E+01  0.25500000000E-02 0. -1.
<mgrwt>
<rscale>  0 0.30301773E+01</rscale>
<asrwt>0</asrwt>
<pdfrwt beam="1">0</pdfrwt>
<pdfrwt beam="2">0</pdfrwt>
<totfact> 0.12711155E+12</totfact>
</mgrwt>
</event>
<event>
 4    1  0.3064748E+006  0.2244364E+01  0.7546771E-02  0.2833223E+00
         22   -1    0    0    0    0  0.00000000000E+00  0.00000000000E+00  0.18408013577E+02  0.18408013577E+02  0.00000000000E+00 0. -1.
         22   -1    0    0    0    0 -0.00000000000E+00 -0.00000000000E+00 -0.27878944707E+00  0.27878944707E+00  0.00000000000E+00 0.  1.
          2    1    1    2  501    0  0.77336165067E-02 -0.22443496078E+01  0.77947951649E+01  0.81114735490E+01  0.25500000000E-02 0.  1.
         -2    1    1    2    0  501 -0.77336165067E-02  0.22443496078E+01  0.10334428965E+02  0.10575329475E+02  0.25500000000E-02 0. -1.
<mgrwt>
<rscale>  0 0.22443644E+01</rscale>
<asrwt>0</asrwt>
<pdfrwt beam="1">0</pdfrwt>
<pdfrwt beam="2">0</pdfrwt>
<totfact> 0.31824737E+12</totfact>
</mgrwt>
</event>
<event>
 4    1  0.3064748E+006  0.2280612E+01  0.7546771E-02  0.2813937E+00
         22   -1    0    0    0    0  0.00000000000E+00  0.00000000000E+00  0.14859048896E+00  0.14859048896E+00  0.00000000000E+00 0. -1.
         22   -1    0    0    0    0 -0.00000000000E+00 -0.00000000000E+00 -0.35537871350E+02  0.35537871350E+02  0.00000000000E+00 0.  1.
          2    1    1    2  501    0 -0.22621095013E+01  0.28990769012E+00 -0.15506701544E+02  0.15673512215E+02  0.25500000000E-02 0.  1.
         -2    1    1    2    0  501  0.22621095013E+01 -0.28990769012E+00 -0.19882579317E+02  0.20012949624E+02  0.25500000000E-02 0. -1.
<mgrwt>
<rscale>  0 0.22806123E+01</rscale>
<asrwt>0</asrwt>
<pdfrwt beam="1">0</pdfrwt>
<pdfrwt beam="2">0</pdfrwt>
<totfact> 0.27972072E+12</totfact>
</mgrwt>
</event>
<event>
 4    1  0.3064748E+006  0.3711422E+01  0.7546771E-02  0.2336102E+00
         22   -1    0    0    0    0  0.00000000000E+00  0.00000000000E+00  0.34340187019E+01  0.34340187019E+01  0.00000000000E+00 0. -1.
         22   -1    0    0    0    0 -0.00000000000E+00 -0.00000000000E+00 -0.50821355922E+01  0.50821355922E+01  0.00000000000E+00 0.  1.
          2    1    1    2  501    0  0.15064314228E+01 -0.33919477269E+01  0.11305746430E+01  0.38798003222E+01  0.25500000000E-02 0. -1.
         -2    1    1    2    0  501 -0.15064314228E+01  0.33919477269E+01 -0.27786915332E+01  0.46363539720E+01  0.25500000000E-02 0.  1.
<mgrwt>
<rscale>  0 0.37114218E+01</rscale>
<asrwt>0</asrwt>
<pdfrwt beam="1">0</pdfrwt>
<pdfrwt beam="2">0</pdfrwt>
<totfact> 0.85706509E+11</totfact>
</mgrwt>
</event>
<event>
 4    1  0.3064748E+006  0.3652859E+01  0.7546771E-02  0.2349007E+00
         22   -1    0    0    0    0  0.00000000000E+00  0.00000000000E+00  0.34888073849E+01  0.34888073849E+01  0.00000000000E+00 0.  1.
         22   -1    0    0    0    0 -0.00000000000E+00 -0.00000000000E+00 -0.68069423868E+01  0.68069423868E+01  0.00000000000E+00 0. -1.
          2    1    1    2  501    0 -0.39896119593E+00  0.36310059365E+01  0.17483775525E+01  0.40497166216E+01  0.25500000000E-02 0.  1.
         -2    1    1    2    0  501  0.39896119593E+00 -0.36310059365E+01 -0.50665125544E+01  0.62460331501E+01  0.25500000000E-02 0. -1.
<mgrwt>
<rscale>  0 0.36528592E+01</rscale>
<asrwt>0</asrwt>
<pdfrwt beam="1">0</pdfrwt>
<pdfrwt beam="2">0</pdfrwt>
<totfact> 0.59425511E+11</totfact>
</mgrwt>
</event>
<event>
 4    1  0.3064748E+006  0.2040291E+01  0.7546771E-02  0.2954048E+00
         22   -1    0    0    0    0  0.00000000000E+00  0.00000000000E+00  0.92061932016E+00  0.92061932016E+00  0.00000000000E+00 0. -1.
         22   -1    0    0    0    0 -0.00000000000E+00 -0.00000000000E+00 -0.11310541281E+02  0.11310541281E+02  0.00000000000E+00 0.  1.
          2    1    1    2  501    0  0.26627585485E+00 -0.20228389655E+01 -0.45698312409E+00  0.20908420288E+01  0.25500000000E-02 0. -1.
         -2    1    1    2    0  501 -0.26627585485E+00  0.20228389655E+01 -0.99329388370E+01  0.10140318573E+02  0.25500000000E-02 0.  1.
<mgrwt>
<rscale>  0 0.20402909E+01</rscale>
<asrwt>0</asrwt>
<pdfrwt beam="1">0</pdfrwt>
<pdfrwt beam="2">0</pdfrwt>
<totfact> 0.15016162E+12</totfact>
</mgrwt>
</event>
<event>
 4    1  0.3064748E+006  0.2705709E+01  0.7546771E-02  0.2624246E+00
         22   -1    0    0    0    0  0.00000000000E+00  0.00000000000E+00  0.18305629601E+01  0.18305629601E+01  0.00000000000E+00 0. -1.
         22   -1    0    0    0    0 -0.00000000000E+00 -0.00000000000E+00 -0.75907886035E+01  0.75907886035E+01  0.00000000000E+00 0.  1.
          2    1    1    2  501    0  0.21160709752E+01 -0.16861482542E+01  0.36015344476E+00  0.27295731010E+01  0.25500000000E-02 0. -1.
         -2    1    1    2    0  501 -0.21160709752E+01  0.16861482542E+01 -0.61203790882E+01  0.66917784626E+01  0.25500000000E-02 0.  1.
<mgrwt>
<rscale>  0 0.27057086E+01</rscale>
<asrwt>0</asrwt>
<pdfrwt beam="1">0</pdfrwt>
<pdfrwt beam="2">0</pdfrwt>
<totfact> 0.11046391E+12</totfact>
</mgrwt>
</event>
<event>
 4    1  0.3064748E+006  0.2393147E+01  0.7546771E-02  0.2757599E+00
         22   -1    0    0    0    0  0.00000000000E+00  0.00000000000E+00  0.87400219131E+01  0.87400219131E+01  0.00000000000E+00 0. -1.
         22   -1    0    0    0    0 -0.00000000000E+00 -0.00000000000E+00 -0.90190885721E+00  0.90190885721E+00  0.00000000000E+00 0.  1.
          2    1    1    2  501    0  0.28546431955E+00 -0.23760584596E+01  0.64400735525E+01  0.68703491575E+01  0.25500000000E-02 0. -1.
         -2    1    1    2    0  501 -0.28546431955E+00  0.23760584596E+01  0.13980395034E+01  0.27715816129E+01  0.25500000000E-02 0.  1.
<mgrwt>
<rscale>  0 0.23931465E+01</rscale>
<asrwt>0</asrwt>
<pdfrwt beam="1">0</pdfrwt>
<pdfrwt beam="2">0</pdfrwt>
<totfact> 0.21004958E+12</totfact>
</mgrwt>
</event>
<event>
 4    1  0.3064748E+006  0.2917764E+01  0.7546771E-02  0.2548824E+00
         22   -1    0    0    0    0  0.00000000000E+00  0.00000000000E+00  0.68011821162E+00  0.68011821162E+00  0.00000000000E+00 0.  1.
         22   -1    0    0    0    0 -0.00000000000E+00 -0.00000000000E+00 -0.15093278894E+02  0.15093278894E+02  0.00000000000E+00 0. -1.
          2    1    1    2  501    0 -0.62751292097E-01 -0.29170876413E+01 -0.39484977171E+01  0.49095803034E+01  0.25500000000E-02 0.  1.
         -2    1    1    2    0  501  0.62751292097E-01  0.29170876413E+01 -0.10464662965E+02  0.10863816802E+02  0.25500000000E-02 0. -1.
<mgrwt>
<rscale>  0 0.29177636E+01</rscale>
<asrwt>0</asrwt>
<pdfrwt beam="1">0</pdfrwt>
<pdfrwt beam="2">0</pdfrwt>
<totfact> 0.14888685E+12</totfact>
</mgrwt>
</event>
<event>
 4    1  0.3064748E+006  0.2337320E+01  0.7546771E-02  0.2784906E+00
         22   -1    0    0    0    0  0.00000000000E+00  0.00000000000E+00  0.35379469735E+01  0.35379469735E+01  0.00000000000E+00 0. -1.
         22   -1    0    0    0    0 -0.00000000000E+00 -0.00000000000E+00 -0.18197659997E+01  0.18197659997E+01  0.00000000000E+00 0.  1.
          2    1    1    2  501    0 -0.10058674550E+01  0.21098079859E+01  0.19016628029E+01  0.30132021162E+01  0.25500000000E-02 0. -1.
         -2    1    1    2    0  501  0.10058674550E+01 -0.21098079859E+01 -0.18348182911E+00  0.23445108570E+01  0.25500000000E-02 0.  1.
<mgrwt>
<rscale>  0 0.23373202E+01</rscale>
<asrwt>0</asrwt>
<pdfrwt beam="1">0</pdfrwt>
<pdfrwt beam="2">0</pdfrwt>
<totfact> 0.27492956E+12</totfact>
</mgrwt>
</event>
<event>
 4    1  0.3064748E+006  0.2438545E+01  0.7546771E-02  0.2736260E+00
         22   -1    0    0    0    0  0.00000000000E+00  0.00000000000E+00  0.34005972207E+02  0.34005972207E+02  0.00000000000E+00 0. -1.
         22   -1    0    0    0    0 -0.00000000000E+00 -0.00000000000E+00 -0.37215717413E+00  0.37215717413E+00  0.00000000000E+00 0.  1.
          2    1    1    2  501    0  0.11959365191E+01  0.21251420425E+01  0.29332243706E+02  0.29433433714E+02  0.25500000000E-02 0. -1.
         -2    1    1    2    0  501 -0.11959365191E+01 -0.21251420425E+01  0.43015713263E+01  0.49446956667E+01  0.25500000000E-02 0.  1.
<mgrwt>
<rscale>  0 0.24385445E+01</rscale>
<asrwt>0</asrwt>
<pdfrwt beam="1">0</pdfrwt>
<pdfrwt beam="2">0</pdfrwt>
<totfact> 0.10607343E+12</totfact>
</mgrwt>
</event>
<event>
 4    1  0.3064748E+006  0.2142885E+01  0.7546771E-02  0.2890529E+00
         22   -1    0    0    0    0  0.00000000000E+00  0.00000000000E+00  0.23652872888E+01  0.23652872888E+01  0.00000000000E+00 0. -1.
         22   -1    0    0    0    0 -0.00000000000E+00 -0.00000000000E+00 -0.22011026343E+01  0.22011026343E+01  0.00000000000E+00 0.  1.
          2    1    1    2  501    0  0.18239177506E+01  0.11248444267E+01  0.86636127647E+00  0.23113933696E+01  0.25500000000E-02 0. -1.
         -2    1    1    2    0  501 -0.18239177506E+01 -0.11248444267E+01 -0.70217662195E+00  0.22549965535E+01  0.25500000000E-02 0.  1.
<mgrwt>
<rscale>  0 0.21428853E+01</rscale>
<asrwt>0</asrwt>
<pdfrwt beam="1">0</pdfrwt>
<pdfrwt beam="2">0</pdfrwt>
<totfact> 0.35292383E+12</totfact>
</mgrwt>
</event>
<event>
 4    1  0.3064748E+006  0.6850050E+01  0.7546771E-02  0.1950911E+00
         22   -1    0    0    0    0  0.00000000000E+00  0.00000000000E+00  0.41270671340E+02  0.41270671340E+02  0.00000000000E+00 0.  1.
         22   -1    0    0    0    0 -0.00000000000E+00 -0.00000000000E+00 -0.12354522034E+01  0.12354522034E+01  0.00000000000E+00 0. -1.
          2    1    1    2  501    0  0.43138931447E+01 -0.53210432914E+01  0.26018354881E+02  0.26904980449E+02  0.25500000000E-02 0.  1.
         -2    1    1    2    0  501 -0.43138931447E+01  0.53210432914E+01  0.14016864256E+02  0.15601143094E+02  0.25500000000E-02 0. -1.
<mgrwt>
<rscale>  0 0.68500498E+01</rscale>
<asrwt>0</asrwt>
<pdfrwt beam="1">0</pdfrwt>
<pdfrwt beam="2">0</pdfrwt>
<totfact> 0.21164420E+11</totfact>
</mgrwt>
</event>
<event>
 4    1  0.3064748E+006  0.2814521E+01  0.7546771E-02  0.2584255E+00
         22   -1    0    0    0    0  0.00000000000E+00  0.00000000000E+00  0.44589391319E+02  0.44589391319E+02  0.00000000000E+00 0.  1.
         22   -1    0    0    0    0 -0.00000000000E+00 -0.00000000000E+00 -0.39968392139E+00  0.39968392139E+00  0.00000000000E+00 0. -1.
          2    1    1    2  501    0 -0.19091672353E+01 -0.20679948496E+01  0.38860623433E+02  0.38962412430E+02  0.25500000000E-02 0.  1.
         -2    1    1    2    0  501  0.19091672353E+01  0.20679948496E+01  0.53290839646E+01  0.60266628108E+01  0.25500000000E-02 0. -1.
<mgrwt>
<rscale>  0 0.28145210E+01</rscale>
<asrwt>0</asrwt>
<pdfrwt beam="1">0</pdfrwt>
<pdfrwt beam="2">0</pdfrwt>
<totfact> 0.68910818E+11</totfact>
</mgrwt>
</event>
<event>
 4    1  0.3064748E+006  0.2092751E+01  0.7546771E-02  0.2920814E+00
         22   -1    0    0    0    0  0.00000000000E+00  0.00000000000E+00  0.55095834616E+00  0.55095834616E+00  0.00000000000E+00 0. -1.
         22   -1    0    0    0    0 -0.00000000000E+00 -0.00000000000E+00 -0.10847866707E+02  0.10847866707E+02  0.00000000000E+00 0.  1.
          2    1    1    2  501    0 -0.20927469725E+01  0.30976811396E-02 -0.22022226955E+01  0.30379912425E+01  0.25500000000E-02 0. -1.
         -2    1    1    2    0  501  0.20927469725E+01 -0.30976811396E-02 -0.80946856653E+01  0.83608338107E+01  0.25500000000E-02 0.  1.
<mgrwt>
<rscale>  0 0.20927508E+01</rscale>
<asrwt>0</asrwt>
<pdfrwt beam="1">0</pdfrwt>
<pdfrwt beam="2">0</pdfrwt>
<totfact> 0.28299996E+12</totfact>
</mgrwt>
</event>
<event>
 4    1  0.3064748E+006  0.3692626E+01  0.7546771E-02  0.2340205E+00
         22   -1    0    0    0    0  0.00000000000E+00  0.00000000000E+00  0.19627877926E+02  0.19627877926E+02  0.00000000000E+00 0. -1.
         22   -1    0    0    0    0 -0.00000000000E+00 -0.00000000000E+00 -0.81208787720E+00  0.81208787720E+00  0.00000000000E+00 0.  1.
          2    1    1    2  501    0 -0.75179899324E+00 -0.36152842232E+01  0.13293513393E+02  0.13796846979E+02  0.25500000000E-02 0. -1.
         -2    1    1    2    0  501  0.75179899324E+00  0.36152842232E+01  0.55222766553E+01  0.66431188233E+01  0.25500000000E-02 0.  1.
<mgrwt>
<rscale>  0 0.36926262E+01</rscale>
<asrwt>0</asrwt>
<pdfrwt beam="1">0</pdfrwt>
<pdfrwt beam="2">0</pdfrwt>
<totfact> 0.87918471E+11</totfact>
</mgrwt>
</event>
<event>
 4    1  0.3064748E+006  0.2018767E+01  0.7546771E-02  0.2968172E+00
         22   -1    0    0    0    0  0.00000000000E+00  0.00000000000E+00  0.49587266766E+00  0.49587266766E+00  0.00000000000E+00 0. -1.
         22   -1    0    0    0    0 -0.00000000000E+00 -0.00000000000E+00 -0.98884243103E+01  0.98884243103E+01  0.00000000000E+00 0.  1.
          2    1    1    2  501    0 -0.19816368636E+01 -0.38539244699E+00 -0.25626973717E+01  0.32623360217E+01  0.25500000000E-02 0. -1.
         -2    1    1    2    0  501  0.19816368636E+01  0.38539244699E+00 -0.68298542709E+01  0.71219609562E+01  0.25500000000E-02 0.  1.
<mgrwt>
<rscale>  0 0.20187666E+01</rscale>
<asrwt>0</asrwt>
<pdfrwt beam="1">0</pdfrwt>
<pdfrwt beam="2">0</pdfrwt>
<totfact> 0.35664317E+12</totfact>
</mgrwt>
</event>
<event>
 4    1  0.3064748E+006  0.3663091E+01  0.7546771E-02  0.2346726E+00
         22   -1    0    0    0    0  0.00000000000E+00  0.00000000000E+00  0.11645592254E+02  0.11645592254E+02  0.00000000000E+00 0.  1.
         22   -1    0    0    0    0 -0.00000000000E+00 -0.00000000000E+00 -0.15141376932E+01  0.15141376932E+01  0.00000000000E+00 0. -1.
          2    1    1    2  501    0  0.34955014337E+01 -0.10953062576E+01  0.82826591914E+01  0.90565266993E+01  0.25500000000E-02 0.  1.
         -2    1    1    2    0  501 -0.34955014337E+01  0.10953062576E+01  0.18487953689E+01  0.41032032474E+01  0.25500000000E-02 0. -1.
<mgrwt>
<rscale>  0 0.36630906E+01</rscale>
<asrwt>0</asrwt>
<pdfrwt beam="1">0</pdfrwt>
<pdfrwt beam="2">0</pdfrwt>
<totfact> 0.81971498E+11</totfact>
</mgrwt>
</event>
<event>
 4    1  0.3064748E+006  0.2881908E+01  0.7546771E-02  0.2560869E+00
         22   -1    0    0    0    0  0.00000000000E+00  0.00000000000E+00  0.96119230054E-01  0.96119230054E-01  0.00000000000E+00 0. -1.
         22   -1    0    0    0    0 -0.00000000000E+00 -0.00000000000E+00 -0.93978530215E+02  0.93978530215E+02  0.00000000000E+00 0.  1.
          2    1    1    2  501    0  0.15711838024E+01 -0.24159403493E+01 -0.33590180844E+02  0.33713582455E+02  0.25500000000E-02 0. -1.
         -2    1    1    2    0  501 -0.15711838024E+01  0.24159403493E+01 -0.60292230140E+02  0.60361066989E+02  0.25500000000E-02 0.  1.
<mgrwt>
<rscale>  0 0.28819078E+01</rscale>
<asrwt>0</asrwt>
<pdfrwt beam="1">0</pdfrwt>
<pdfrwt beam="2">0</pdfrwt>
<totfact> 0.12355934E+12</totfact>
</mgrwt>
</event>
<event>
 4    1  0.3064748E+006  0.2430725E+01  0.7546771E-02  0.2739882E+00
         22   -1    0    0    0    0  0.00000000000E+00  0.00000000000E+00  0.25458788127E+02  0.25458788127E+02  0.00000000000E+00 0. -1.
         22   -1    0    0    0    0 -0.00000000000E+00 -0.00000000000E+00 -0.33819287210E+00  0.33819287210E+00  0.00000000000E+00 0.  1.
          2    1    1    2  501    0 -0.24081011375E+01  0.33086065073E+00  0.19785410756E+02  0.19934164270E+02  0.25500000000E-02 0. -1.
         -2    1    1    2    0  501  0.24081011375E+01 -0.33086065073E+00  0.53351844989E+01  0.58628167290E+01  0.25500000000E-02 0.  1.
<mgrwt>
<rscale>  0 0.24307255E+01</rscale>
<asrwt>0</asrwt>
<pdfrwt beam="1">0</pdfrwt>
<pdfrwt beam="2">0</pdfrwt>
<totfact> 0.17075076E+12</totfact>
</mgrwt>
</event>
<event>
 4    1  0.3064748E+006  0.2745505E+01  0.7546771E-02  0.2609285E+00
         22   -1    0    0    0    0  0.00000000000E+00  0.00000000000E+00  0.15919801464E+02  0.15919801464E+02  0.00000000000E+00 0.  1.
         22   -1    0    0    0    0 -0.00000000000E+00 -0.00000000000E+00 -0.25763881420E+01  0.25763881420E+01  0.00000000000E+00 0. -1.
          2    1    1    2  501    0 -0.23809812358E+01  0.13670112520E+01  0.15026894013E+02  0.15275645374E+02  0.25500000000E-02 0.  1.
         -2    1    1    2    0  501  0.23809812358E+01 -0.13670112520E+01 -0.16834806913E+01  0.32205442318E+01  0.25500000000E-02 0. -1.
<mgrwt>
<rscale>  0 0.27455050E+01</rscale>
<asrwt>0</asrwt>
<pdfrwt beam="1">0</pdfrwt>
<pdfrwt beam="2">0</pdfrwt>
<totfact> 0.30206300E+11</totfact>
</mgrwt>
</event>
<event>
 4    1  0.3064748E+006  0.2420451E+01  0.7546771E-02  0.2744674E+00
         22   -1    0    0    0    0  0.00000000000E+00  0.00000000000E+00  0.41107668697E+01  0.41107668697E+01  0.00000000000E+00 0. -1.
         22   -1    0    0    0    0 -0.00000000000E+00 -0.00000000000E+00 -0.14681938194E+01  0.14681938194E+01  0.00000000000E+00 0.  1.
          2    1    1    2  501    0  0.83327267808E+00  0.22724947860E+01  0.17987454354E+01  0.30156371719E+01  0.25500000000E-02 0. -1.
         -2    1    1    2    0  501 -0.83327267808E+00 -0.22724947860E+01  0.84382761485E+00  0.25633235173E+01  0.25500000000E-02 0.  1.
<mgrwt>
<rscale>  0 0.24204509E+01</rscale>
<asrwt>0</asrwt>
<pdfrwt beam="1">0</pdfrwt>
<pdfrwt beam="2">0</pdfrwt>
<totfact> 0.29518346E+12</totfact>
</mgrwt>
</event>
<event>
 4    1  0.3064748E+006  0.2050776E+01  0.7546771E-02  0.2947274E+00
         22   -1    0    0    0    0  0.00000000000E+00  0.00000000000E+00  0.20755637537E+02  0.20755637537E+02  0.00000000000E+00 0.  1.
         22   -1    0    0    0    0 -0.00000000000E+00 -0.00000000000E+00 -0.22703814846E+00  0.22703814846E+00  0.00000000000E+00 0. -1.
          2    1    1    2  501    0  0.51192180623E+00  0.19858524050E+01  0.13704341431E+02  0.13856935241E+02  0.25500000000E-02 0.  1.
         -2    1    1    2    0  501 -0.51192180623E+00 -0.19858524050E+01  0.68242579575E+01  0.71257404446E+01  0.25500000000E-02 0. -1.
<mgrwt>
<rscale>  0 0.20507755E+01</rscale>
<asrwt>0</asrwt>
<pdfrwt beam="1">0</pdfrwt>
<pdfrwt beam="2">0</pdfrwt>
<totfact> 0.34480465E+12</totfact>
</mgrwt>
</event>
<event>
 4    1  0.3064748E+006  0.3702695E+01  0.7546771E-02  0.2338002E+00
         22   -1    0    0    0    0  0.00000000000E+00  0.00000000000E+00  0.24496343841E+02  0.24496343841E+02  0.00000000000E+00 0.  1.
         22   -1    0    0    0    0 -0.00000000000E+00 -0.00000000000E+00 -0.42670639693E+01  0.42670639693E+01  0.00000000000E+00 0. -1.
          2    1    1    2  501    0  0.37024072761E+01  0.46057887402E-01  0.23520045195E+02  0.23809713847E+02  0.25500000000E-02 0.  1.
         -2    1    1    2    0  501 -0.37024072761E+01 -0.46057887402E-01 -0.32907653236E+01  0.49536939636E+01  0.25500000000E-02 0. -1.
<mgrwt>
<rscale>  0 0.37026946E+01</rscale>
<asrwt>0</asrwt>
<pdfrwt beam="1">0</pdfrwt>
<pdfrwt beam="2">0</pdfrwt>
<totfact> 0.97766879E+10</totfact>
</mgrwt>
</event>
<event>
 4    1  0.3064748E+006  0.2860370E+01  0.7546771E-02  0.2568235E+00
         22   -1    0    0    0    0  0.00000000000E+00  0.00000000000E+00  0.16540116325E+00  0.16540116325E+00  0.00000000000E+00 0. -1.
         22   -1    0    0    0    0 -0.00000000000E+00 -0.00000000000E+00 -0.70821989167E+02  0.70821989167E+02  0.00000000000E+00 0.  1.
          2    1    1    2  501    0 -0.75690270923E+00  0.27584063729E+01 -0.15837558372E+02  0.16093786662E+02  0.25500000000E-02 0. -1.
         -2    1    1    2    0  501  0.75690270923E+00 -0.27584063729E+01 -0.54819029632E+02  0.54893603669E+02  0.25500000000E-02 0.  1.
<mgrwt>
<rscale>  0 0.28603695E+01</rscale>
<asrwt>0</asrwt>
<pdfrwt beam="1">0</pdfrwt>
<pdfrwt beam="2">0</pdfrwt>
<totfact> 0.99887542E+11</totfact>
</mgrwt>
</event>
<event>
 4    1  0.3064748E+006  0.2139197E+01  0.7546771E-02  0.2892710E+00
         22   -1    0    0    0    0  0.00000000000E+00  0.00000000000E+00  0.11090537365E+01  0.11090537365E+01  0.00000000000E+00 0. -1.
         22   -1    0    0    0    0 -0.00000000000E+00 -0.00000000000E+00 -0.41349079899E+01  0.41349079899E+01  0.00000000000E+00 0.  1.
          2    1    1    2  501    0 -0.13587584020E+01 -0.16522512437E+01 -0.13925246337E+01  0.25525065965E+01  0.25500000000E-02 0. -1.
         -2    1    1    2    0  501  0.13587584020E+01  0.16522512437E+01 -0.16333296197E+01  0.26914551299E+01  0.25500000000E-02 0.  1.
<mgrwt>
<rscale>  0 0.21391973E+01</rscale>
<asrwt>0</asrwt>
<pdfrwt beam="1">0</pdfrwt>
<pdfrwt beam="2">0</pdfrwt>
<totfact> 0.40441420E+12</totfact>
</mgrwt>
</event>
<event>
 4    1  0.3064748E+006  0.2044878E+01  0.7546771E-02  0.2951076E+00
         22   -1    0    0    0    0  0.00000000000E+00  0.00000000000E+00  0.17080738190E+01  0.17080738190E+01  0.00000000000E+00 0.  1.
         22   -1    0    0    0    0 -0.00000000000E+00 -0.00000000000E+00 -0.26458104274E+01  0.26458104274E+01  0.00000000000E+00 0. -1.
          2    1    1    2  501    0  0.18363036131E+01  0.89972784653E+00 -0.10639647553E+01  0.23051135894E+01  0.25500000000E-02 0. -1.
         -2    1    1    2    0  501 -0.18363036131E+01 -0.89972784653E+00  0.12622814682E+00  0.20487706569E+01  0.25500000000E-02 0.  1.
<mgrwt>
<rscale>  0 0.20448784E+01</rscale>
<asrwt>0</asrwt>
<pdfrwt beam="1">0</pdfrwt>
<pdfrwt beam="2">0</pdfrwt>
<totfact> 0.41537753E+12</totfact>
</mgrwt>
</event>
<event>
 4    1  0.3064748E+006  0.2513755E+01  0.7546771E-02  0.2702497E+00
         22   -1    0    0    0    0  0.00000000000E+00  0.00000000000E+00  0.16028594543E+02  0.16028594543E+02  0.00000000000E+00 0. -1.
         22   -1    0    0    0    0 -0.00000000000E+00 -0.00000000000E+00 -0.13743065802E+02  0.13743065802E+02  0.00000000000E+00 0.  1.
          2    1    1    2  501    0 -0.24313821601E+01 -0.63822995106E+00  0.15813535164E+02  0.16012084735E+02  0.25500000000E-02 0. -1.
         -2    1    1    2    0  501  0.24313821601E+01  0.63822995106E+00 -0.13528006423E+02  0.13759575610E+02  0.25500000000E-02 0.  1.
<mgrwt>
<rscale>  0 0.25137548E+01</rscale>
<asrwt>0</asrwt>
<pdfrwt beam="1">0</pdfrwt>
<pdfrwt beam="2">0</pdfrwt>
<totfact> 0.40735895E+10</totfact>
</mgrwt>
</event>
<event>
 4    1  0.3064748E+006  0.2562307E+01  0.7546771E-02  0.2681682E+00
         22   -1    0    0    0    0  0.00000000000E+00  0.00000000000E+00  0.36492262919E+01  0.36492262919E+01  0.00000000000E+00 0.  1.
         22   -1    0    0    0    0 -0.00000000000E+00 -0.00000000000E+00 -0.22651420088E+01  0.22651420088E+01  0.00000000000E+00 0. -1.
          2    1    1    2  501    0 -0.17105982979E+01  0.19076856953E+01  0.20333580942E+01  0.32710797744E+01  0.25500000000E-02 0.  1.
         -2    1    1    2    0  501  0.17105982979E+01 -0.19076856953E+01 -0.64927381117E+00  0.26432885263E+01  0.25500000000E-02 0. -1.
<mgrwt>
<rscale>  0 0.25623071E+01</rscale>
<asrwt>0</asrwt>
<pdfrwt beam="1">0</pdfrwt>
<pdfrwt beam="2">0</pdfrwt>
<totfact> 0.20575982E+12</totfact>
</mgrwt>
</event>
<event>
 4    1  0.3064748E+006  0.2119349E+01  0.7546771E-02  0.2904574E+00
         22   -1    0    0    0    0  0.00000000000E+00  0.00000000000E+00  0.68772127582E+00  0.68772127582E+00  0.00000000000E+00 0.  1.
         22   -1    0    0    0    0 -0.00000000000E+00 -0.00000000000E+00 -0.85958501352E+01  0.85958501352E+01  0.00000000000E+00 0. -1.
          2    1    1    2  501    0  0.12145475168E+01  0.17368093653E+01 -0.16791510768E+01  0.27039207242E+01  0.25500000000E-02 0.  1.
         -2    1    1    2    0  501 -0.12145475168E+01 -0.17368093653E+01 -0.62289777826E+01  0.65796506868E+01  0.25500000000E-02 0. -1.
<mgrwt>
<rscale>  0 0.21193487E+01</rscale>
<asrwt>0</asrwt>
<pdfrwt beam="1">0</pdfrwt>
<pdfrwt beam="2">0</pdfrwt>
<totfact> 0.29169095E+12</totfact>
</mgrwt>
</event>
<event>
 4    1  0.3064748E+006  0.2457473E+01  0.7546771E-02  0.2727581E+00
         22   -1    0    0    0    0  0.00000000000E+00  0.00000000000E+00  0.21848620444E+01  0.21848620444E+01  0.00000000000E+00 0.  1.
         22   -1    0    0    0    0 -0.00000000000E+00 -0.00000000000E+00 -0.49407551428E+01  0.49407551428E+01  0.00000000000E+00 0. -1.
          2    1    1    2  501    0  0.19356587450E+01 -0.15140655539E+01  0.98683322831E+00  0.26482098863E+01  0.25500000000E-02 0.  1.
         -2    1    1    2    0  501 -0.19356587450E+01  0.15140655539E+01 -0.37427263268E+01  0.44774073009E+01  0.25500000000E-02 0. -1.
<mgrwt>
<rscale>  0 0.24574735E+01</rscale>
<asrwt>0</asrwt>
<pdfrwt beam="1">0</pdfrwt>
<pdfrwt beam="2">0</pdfrwt>
<totfact> 0.15011823E+12</totfact>
</mgrwt>
</event>
<event>
 4    1  0.3064748E+006  0.2040545E+01  0.7546771E-02  0.2953884E+00
         22   -1    0    0    0    0  0.00000000000E+00  0.00000000000E+00  0.13768266131E+02  0.13768266131E+02  0.00000000000E+00 0. -1.
         22   -1    0    0    0    0 -0.00000000000E+00 -0.00000000000E+00 -0.58783012696E+00  0.58783012696E+00  0.00000000000E+00 0.  1.
          2    1    1    2  501    0  0.14618405665E+01  0.14236706667E+01  0.11591874226E+02  0.11770104952E+02  0.25500000000E-02 0. -1.
         -2    1    1    2    0  501 -0.14618405665E+01 -0.14236706667E+01  0.15885617780E+01  0.25859913059E+01  0.25500000000E-02 0.  1.
<mgrwt>
<rscale>  0 0.20405447E+01</rscale>
<asrwt>0</asrwt>
<pdfrwt beam="1">0</pdfrwt>
<pdfrwt beam="2">0</pdfrwt>
<totfact> 0.19661062E+12</totfact>
</mgrwt>
</event>
<event>
 4    1  0.3064748E+006  0.2309412E+01  0.7546771E-02  0.2799024E+00
         22   -1    0    0    0    0  0.00000000000E+00  0.00000000000E+00  0.10695316973E+01  0.10695316973E+01  0.00000000000E+00 0.  1.
         22   -1    0    0    0    0 -0.00000000000E+00 -0.00000000000E+00 -0.54001098206E+01  0.54001098206E+01  0.00000000000E+00 0. -1.
          2    1    1    2  501    0  0.34510586628E+00 -0.22834796116E+01 -0.30603732437E+01  0.38339624528E+01  0.25500000000E-02 0. -1.
         -2    1    1    2    0  501 -0.34510586628E+00  0.22834796116E+01 -0.12702048795E+01  0.26356790651E+01  0.25500000000E-02 0.  1.
<mgrwt>
<rscale>  0 0.23094120E+01</rscale>
<asrwt>0</asrwt>
<pdfrwt beam="1">0</pdfrwt>
<pdfrwt beam="2">0</pdfrwt>
<totfact> 0.30747461E+12</totfact>
</mgrwt>
</event>
<event>
 4    1  0.3064748E+006  0.2045120E+01  0.7546771E-02  0.2950920E+00
         22   -1    0    0    0    0  0.00000000000E+00  0.00000000000E+00  0.29151168981E+01  0.29151168981E+01  0.00000000000E+00 0.  1.
         22   -1    0    0    0    0 -0.00000000000E+00 -0.00000000000E+00 -0.24112710958E+01  0.24112710958E+01  0.00000000000E+00 0. -1.
          2    1    1    2  501    0 -0.20439394797E+01  0.69431272378E-01 -0.14428700311E+01  0.25028762909E+01  0.25500000000E-02 0. -1.
         -2    1    1    2    0  501  0.20439394797E+01 -0.69431272378E-01  0.19467158334E+01  0.28235117030E+01  0.25500000000E-02 0.  1.
<mgrwt>
<rscale>  0 0.20451200E+01</rscale>
<asrwt>0</asrwt>
<pdfrwt beam="1">0</pdfrwt>
<pdfrwt beam="2">0</pdfrwt>
<totfact> 0.24887328E+12</totfact>
</mgrwt>
</event>
<event>
 4    1  0.3064748E+006  0.3022182E+01  0.7546771E-02  0.2515216E+00
         22   -1    0    0    0    0  0.00000000000E+00  0.00000000000E+00  0.29602262836E+01  0.29602262836E+01  0.00000000000E+00 0. -1.
         22   -1    0    0    0    0 -0.00000000000E+00 -0.00000000000E+00 -0.88166165790E+01  0.88166165790E+01  0.00000000000E+00 0.  1.
          2    1    1    2  501    0 -0.20967737848E+00  0.30148986151E+01  0.18193598517E+01  0.35275565247E+01  0.25500000000E-02 0. -1.
         -2    1    1    2    0  501  0.20967737848E+00 -0.30148986151E+01 -0.76757501470E+01  0.82492863379E+01  0.25500000000E-02 0.  1.
<mgrwt>
<rscale>  0 0.30221821E+01</rscale>
<asrwt>0</asrwt>
<pdfrwt beam="1">0</pdfrwt>
<pdfrwt beam="2">0</pdfrwt>
<totfact> 0.52798999E+11</totfact>
</mgrwt>
</event>
<event>
 4    1  0.3064748E+006  0.4251609E+01  0.7546771E-02  0.2231633E+00
         22   -1    0    0    0    0  0.00000000000E+00  0.00000000000E+00  0.44043227922E+00  0.44043227922E+00  0.00000000000E+00 0.  1.
         22   -1    0    0    0    0 -0.00000000000E+00 -0.00000000000E+00 -0.41762995092E+02  0.41762995092E+02  0.00000000000E+00 0. -1.
          2    1    1    2  501    0  0.23873022762E+01 -0.35180898701E+01 -0.23434090257E+02  0.23816648823E+02  0.25500000000E-02 0.  1.
         -2    1    1    2    0  501 -0.23873022762E+01  0.35180898701E+01 -0.17888472556E+02  0.18386778548E+02  0.25500000000E-02 0. -1.
<mgrwt>
<rscale>  0 0.42516085E+01</rscale>
<asrwt>0</asrwt>
<pdfrwt beam="1">0</pdfrwt>
<pdfrwt beam="2">0</pdfrwt>
<totfact> 0.67283437E+11</totfact>
</mgrwt>
</event>
<event>
 4    1  0.3064748E+006  0.2373552E+01  0.7546771E-02  0.2767045E+00
         22   -1    0    0    0    0  0.00000000000E+00  0.00000000000E+00  0.23587696126E+01  0.23587696126E+01  0.00000000000E+00 0.  1.
         22   -1    0    0    0    0 -0.00000000000E+00 -0.00000000000E+00 -0.34578752136E+01  0.34578752136E+01  0.00000000000E+00 0. -1.
          2    1    1    2  501    0  0.20892664828E+01 -0.11263693853E+01  0.10678484707E+01  0.26027003837E+01  0.25500000000E-02 0.  1.
         -2    1    1    2    0  501 -0.20892664828E+01  0.11263693853E+01 -0.21669540717E+01  0.32139444425E+01  0.25500000000E-02 0. -1.
<mgrwt>
<rscale>  0 0.23735520E+01</rscale>
<asrwt>0</asrwt>
<pdfrwt beam="1">0</pdfrwt>
<pdfrwt beam="2">0</pdfrwt>
<totfact> 0.20910765E+12</totfact>
</mgrwt>
</event>
<event>
 4    1  0.3064748E+006  0.3566064E+01  0.7546771E-02  0.2368806E+00
         22   -1    0    0    0    0  0.00000000000E+00  0.00000000000E+00  0.11405123539E+01  0.11405123539E+01  0.00000000000E+00 0.  1.
         22   -1    0    0    0    0 -0.00000000000E+00 -0.00000000000E+00 -0.11340209322E+02  0.11340209322E+02  0.00000000000E+00 0. -1.
          2    1    1    2  501    0  0.11523853463E+01 -0.33747316823E+01 -0.59078557659E+01  0.69006936004E+01  0.25500000000E-02 0. -1.
         -2    1    1    2    0  501 -0.11523853463E+01  0.33747316823E+01 -0.42918412018E+01  0.55800280750E+01  0.25500000000E-02 0.  1.
<mgrwt>
<rscale>  0 0.35660640E+01</rscale>
<asrwt>0</asrwt>
<pdfrwt beam="1">0</pdfrwt>
<pdfrwt beam="2">0</pdfrwt>
<totfact> 0.11720696E+12</totfact>
</mgrwt>
</event>
<event>
 4    1  0.3064748E+006  0.2214809E+01  0.7546771E-02  0.2849393E+00
         22   -1    0    0    0    0  0.00000000000E+00  0.00000000000E+00  0.21045741322E+02  0.21045741322E+02  0.00000000000E+00 0. -1.
         22   -1    0    0    0    0 -0.00000000000E+00 -0.00000000000E+00 -0.24267605352E+00  0.24267605352E+00  0.00000000000E+00 0.  1.
          2    1    1    2  501    0 -0.18818708051E+01  0.11678769998E+01  0.82851034434E+01  0.85760317155E+01  0.25500000000E-02 0.  1.
         -2    1    1    2    0  501  0.18818708051E+01 -0.11678769998E+01  0.12517961825E+02  0.12712385660E+02  0.25500000000E-02 0. -1.
<mgrwt>
<rscale>  0 0.22148095E+01</rscale>
<asrwt>0</asrwt>
<pdfrwt beam="1">0</pdfrwt>
<pdfrwt beam="2">0</pdfrwt>
<totfact> 0.31457622E+12</totfact>
</mgrwt>
</event>
<event>
 4    1  0.3064748E+006  0.3160752E+01  0.7546771E-02  0.2473699E+00
         22   -1    0    0    0    0  0.00000000000E+00  0.00000000000E+00  0.82195788607E+02  0.82195788607E+02  0.00000000000E+00 0. -1.
         22   -1    0    0    0    0 -0.00000000000E+00 -0.00000000000E+00 -0.12526343445E+00  0.12526343445E+00  0.00000000000E+00 0.  1.
          2    1    1    2  501    0 -0.16515760581E+01  0.26949290375E+01  0.33942025861E+02  0.34088876075E+02  0.25500000000E-02 0. -1.
         -2    1    1    2    0  501  0.16515760581E+01 -0.26949290375E+01  0.48128499311E+02  0.48232175966E+02  0.25500000000E-02 0.  1.
<mgrwt>
<rscale>  0 0.31607519E+01</rscale>
<asrwt>0</asrwt>
<pdfrwt beam="1">0</pdfrwt>
<pdfrwt beam="2">0</pdfrwt>
<totfact> 0.11096447E+12</totfact>
</mgrwt>
</event>
<event>
 4    1  0.3064748E+006  0.2261595E+01  0.7546771E-02  0.2823981E+00
         22   -1    0    0    0    0  0.00000000000E+00  0.00000000000E+00  0.41334785582E+02  0.41334785582E+02  0.00000000000E+00 0.  1.
         22   -1    0    0    0    0 -0.00000000000E+00 -0.00000000000E+00 -0.10626974613E+01  0.10626974613E+01  0.00000000000E+00 0. -1.
          2    1    1    2  501    0 -0.15506282078E+01  0.16463162941E+01  0.40062403641E+02  0.40126188420E+02  0.25500000000E-02 0.  1.
         -2    1    1    2    0  501  0.15506282078E+01 -0.16463162941E+01  0.20968447972E+00  0.22712946226E+01  0.25500000000E-02 0. -1.
<mgrwt>
<rscale>  0 0.22615949E+01</rscale>
<asrwt>0</asrwt>
<pdfrwt beam="1">0</pdfrwt>
<pdfrwt beam="2">0</pdfrwt>
<totfact> 0.25094762E+11</totfact>
</mgrwt>
</event>
<event>
 4    1  0.3064748E+006  0.3350456E+01  0.7546771E-02  0.2421830E+00
         22   -1    0    0    0    0  0.00000000000E+00  0.00000000000E+00  0.49211163716E+01  0.49211163716E+01  0.00000000000E+00 0.  1.
         22   -1    0    0    0    0 -0.00000000000E+00 -0.00000000000E+00 -0.24327089695E+01  0.24327089695E+01  0.00000000000E+00 0. -1.
          2    1    1    2  501    0 -0.33248856110E+01 -0.41313824848E+00  0.21621177115E+01  0.39875189077E+01  0.25500000000E-02 0.  1.
         -2    1    1    2    0  501  0.33248856110E+01  0.41313824848E+00  0.32628969062E+00  0.33663064334E+01  0.25500000000E-02 0. -1.
<mgrwt>
<rscale>  0 0.33504558E+01</rscale>
<asrwt>0</asrwt>
<pdfrwt beam="1">0</pdfrwt>
<pdfrwt beam="2">0</pdfrwt>
<totfact> 0.13314079E+12</totfact>
</mgrwt>
</event>
<event>
 4    1  0.3064748E+006  0.2169479E+01  0.7546771E-02  0.2875014E+00
         22   -1    0    0    0    0  0.00000000000E+00  0.00000000000E+00  0.11295531651E+01  0.11295531651E+01  0.00000000000E+00 0. -1.
         22   -1    0    0    0    0 -0.00000000000E+00 -0.00000000000E+00 -0.15120252860E+02  0.15120252860E+02  0.00000000000E+00 0.  1.
          2    1    1    2  501    0 -0.53841635943E+00 -0.21016046228E+01 -0.80004795140E-01  0.21709540383E+01  0.25500000000E-02 0.  1.
         -2    1    1    2    0  501  0.53841635943E+00  0.21016046228E+01 -0.13910694899E+02  0.14078851986E+02  0.25500000000E-02 0. -1.
<mgrwt>
<rscale>  0 0.21694794E+01</rscale>
<asrwt>0</asrwt>
<pdfrwt beam="1">0</pdfrwt>
<pdfrwt beam="2">0</pdfrwt>
<totfact> 0.83336166E+11</totfact>
</mgrwt>
</event>
<event>
 4    1  0.3064748E+006  0.2410937E+01  0.7546771E-02  0.2749146E+00
         22   -1    0    0    0    0  0.00000000000E+00  0.00000000000E+00  0.10180990447E+02  0.10180990447E+02  0.00000000000E+00 0. -1.
         22   -1    0    0    0    0 -0.00000000000E+00 -0.00000000000E+00 -0.41109444844E+01  0.41109444844E+01  0.00000000000E+00 0.  1.
          2    1    1    2  501    0 -0.19185303254E+01 -0.14600865152E+01  0.96662338629E+01  0.99623639181E+01  0.25500000000E-02 0. -1.
         -2    1    1    2    0  501  0.19185303254E+01  0.14600865152E+01 -0.35961879004E+01  0.43295710133E+01  0.25500000000E-02 0.  1.
<mgrwt>
<rscale>  0 0.24109371E+01</rscale>
<asrwt>0</asrwt>
<pdfrwt beam="1">0</pdfrwt>
<pdfrwt beam="2">0</pdfrwt>
<totfact> 0.30189609E+11</totfact>
</mgrwt>
</event>
<event>
 4    1  0.3064748E+006  0.2325577E+01  0.7546771E-02  0.2790807E+00
         22   -1    0    0    0    0  0.00000000000E+00  0.00000000000E+00  0.48134843565E+00  0.48134843565E+00  0.00000000000E+00 0. -1.
         22   -1    0    0    0    0 -0.00000000000E+00 -0.00000000000E+00 -0.27780015274E+02  0.27780015274E+02  0.00000000000E+00 0.  1.
          2    1    1    2  501    0 -0.15731151497E+01 -0.17127792232E+01 -0.27444600294E+01  0.35972727582E+01  0.25500000000E-02 0. -1.
         -2    1    1    2    0  501  0.15731151497E+01  0.17127792232E+01 -0.24554206809E+02  0.24664090951E+02  0.25500000000E-02 0.  1.
<mgrwt>
<rscale>  0 0.23255774E+01</rscale>
<asrwt>0</asrwt>
<pdfrwt beam="1">0</pdfrwt>
<pdfrwt beam="2">0</pdfrwt>
<totfact> 0.10275869E+12</totfact>
</mgrwt>
</event>
<event>
 4    1  0.3064748E+006  0.2424797E+01  0.7546771E-02  0.2742642E+00
         22   -1    0    0    0    0  0.00000000000E+00  0.00000000000E+00  0.32235669487E+02  0.32235669487E+02  0.00000000000E+00 0.  1.
         22   -1    0    0    0    0 -0.00000000000E+00 -0.00000000000E+00 -0.23418162902E+00  0.23418162902E+00  0.00000000000E+00 0. -1.
          2    1    1    2  501    0  0.17840933379E+01 -0.16421469784E+01  0.23635241487E+02  0.23759298861E+02  0.25500000000E-02 0.  1.
         -2    1    1    2    0  501 -0.17840933379E+01  0.16421469784E+01  0.83662463712E+01  0.87105522548E+01  0.25500000000E-02 0. -1.
<mgrwt>
<rscale>  0 0.24247974E+01</rscale>
<asrwt>0</asrwt>
<pdfrwt beam="1">0</pdfrwt>
<pdfrwt beam="2">0</pdfrwt>
<totfact> 0.19093909E+12</totfact>
</mgrwt>
</event>
<event>
 4    1  0.3064748E+006  0.2123755E+01  0.7546771E-02  0.2901922E+00
         22   -1    0    0    0    0  0.00000000000E+00  0.00000000000E+00  0.17439364588E+01  0.17439364588E+01  0.00000000000E+00 0. -1.
         22   -1    0    0    0    0 -0.00000000000E+00 -0.00000000000E+00 -0.38872146335E+01  0.38872146335E+01  0.00000000000E+00 0.  1.
          2    1    1    2  501    0 -0.17550914789E+01 -0.11958181674E+01  0.55718131828E+00  0.21956285462E+01  0.25500000000E-02 0. -1.
         -2    1    1    2    0  501  0.17550914789E+01  0.11958181674E+01 -0.27004594930E+01  0.34355225461E+01  0.25500000000E-02 0.  1.
<mgrwt>
<rscale>  0 0.21237546E+01</rscale>
<asrwt>0</asrwt>
<pdfrwt beam="1">0</pdfrwt>
<pdfrwt beam="2">0</pdfrwt>
<totfact> 0.25854075E+12</totfact>
</mgrwt>
</event>
<event>
 4    1  0.3064748E+006  0.3882895E+01  0.7546771E-02  0.2300254E+00
         22   -1    0    0    0    0  0.00000000000E+00  0.00000000000E+00  0.84645154115E+02  0.84645154115E+02  0.00000000000E+00 0. -1.
         22   -1    0    0    0    0 -0.00000000000E+00 -0.00000000000E+00 -0.19771375434E+00  0.19771375434E+00  0.00000000000E+00 0.  1.
          2    1    1    2  501    0  0.31383685547E+01  0.22863751808E+01  0.55578643643E+02  0.55714114050E+02  0.25500000000E-02 0. -1.
         -2    1    1    2    0  501 -0.31383685547E+01 -0.22863751808E+01  0.28868796717E+02  0.29128753819E+02  0.25500000000E-02 0.  1.
<mgrwt>
<rscale>  0 0.38828952E+01</rscale>
<asrwt>0</asrwt>
<pdfrwt beam="1">0</pdfrwt>
<pdfrwt beam="2">0</pdfrwt>
<totfact> 0.64132727E+11</totfact>
</mgrwt>
</event>
<event>
 4    1  0.3064748E+006  0.2749678E+01  0.7546771E-02  0.2607739E+00
         22   -1    0    0    0    0  0.00000000000E+00  0.00000000000E+00  0.23163533694E+01  0.23163533694E+01  0.00000000000E+00 0. -1.
         22   -1    0    0    0    0 -0.00000000000E+00 -0.00000000000E+00 -0.34691749016E+01  0.34691749016E+01  0.00000000000E+00 0.  1.
          2    1    1    2  501    0  0.75429449757E+00  0.26441939293E+01  0.12697425861E+00  0.27526079797E+01  0.25500000000E-02 0.  1.
         -2    1    1    2    0  501 -0.75429449757E+00 -0.26441939293E+01 -0.12797957907E+01  0.30329202913E+01  0.25500000000E-02 0. -1.
<mgrwt>
<rscale>  0 0.27496778E+01</rscale>
<asrwt>0</asrwt>
<pdfrwt beam="1">0</pdfrwt>
<pdfrwt beam="2">0</pdfrwt>
<totfact> 0.21275161E+12</totfact>
</mgrwt>
</event>
<event>
 4    1  0.3064748E+006  0.2330861E+01  0.7546771E-02  0.2788145E+00
         22   -1    0    0    0    0  0.00000000000E+00  0.00000000000E+00  0.86639186893E-01  0.86639186893E-01  0.00000000000E+00 0.  1.
         22   -1    0    0    0    0 -0.00000000000E+00 -0.00000000000E+00 -0.66269010558E+02  0.66269010558E+02  0.00000000000E+00 0. -1.
          2    1    1    2  501    0 -0.23261858282E+01 -0.14752850787E+00 -0.25399519273E+02  0.25506244156E+02  0.25500000000E-02 0.  1.
         -2    1    1    2    0  501  0.23261858282E+01  0.14752850787E+00 -0.40782852099E+02  0.40849405589E+02  0.25500000000E-02 0. -1.
<mgrwt>
<rscale>  0 0.23308607E+01</rscale>
<asrwt>0</asrwt>
<pdfrwt beam="1">0</pdfrwt>
<pdfrwt beam="2">0</pdfrwt>
<totfact> 0.22389201E+12</totfact>
</mgrwt>
</event>
<event>
 4    1  0.3064748E+006  0.2441496E+01  0.7546771E-02  0.2734898E+00
         22   -1    0    0    0    0  0.00000000000E+00  0.00000000000E+00  0.33280962697E+01  0.33280962697E+01  0.00000000000E+00 0. -1.
         22   -1    0    0    0    0 -0.00000000000E+00 -0.00000000000E+00 -0.26311588008E+01  0.26311588008E+01  0.00000000000E+00 0.  1.
          2    1    1    2  501    0 -0.79722213768E+00  0.23076679518E+01  0.20321014153E+01  0.31765291085E+01  0.25500000000E-02 0. -1.
         -2    1    1    2    0  501  0.79722213768E+00 -0.23076679518E+01 -0.13351639465E+01  0.27827259619E+01  0.25500000000E-02 0.  1.
<mgrwt>
<rscale>  0 0.24414957E+01</rscale>
<asrwt>0</asrwt>
<pdfrwt beam="1">0</pdfrwt>
<pdfrwt beam="2">0</pdfrwt>
<totfact> 0.19259156E+12</totfact>
</mgrwt>
</event>
<event>
 4    1  0.3064748E+006  0.2561541E+01  0.7546771E-02  0.2682005E+00
         22   -1    0    0    0    0  0.00000000000E+00  0.00000000000E+00  0.26396019643E+01  0.26396019643E+01  0.00000000000E+00 0.  1.
         22   -1    0    0    0    0 -0.00000000000E+00 -0.00000000000E+00 -0.36298887074E+01  0.36298887074E+01  0.00000000000E+00 0. -1.
          2    1    1    2  501    0 -0.18994976985E+01  0.17185438355E+01  0.12647555879E+01  0.28567634870E+01  0.25500000000E-02 0. -1.
         -2    1    1    2    0  501  0.18994976985E+01 -0.17185438355E+01 -0.22550423309E+01  0.34127271848E+01  0.25500000000E-02 0.  1.
<mgrwt>
<rscale>  0 0.25615407E+01</rscale>
<asrwt>0</asrwt>
<pdfrwt beam="1">0</pdfrwt>
<pdfrwt beam="2">0</pdfrwt>
<totfact> 0.17330938E+12</totfact>
</mgrwt>
</event>
<event>
 4    1  0.3064748E+006  0.4288820E+01  0.7546771E-02  0.2225266E+00
         22   -1    0    0    0    0  0.00000000000E+00  0.00000000000E+00  0.18217287143E+02  0.18217287143E+02  0.00000000000E+00 0. -1.
         22   -1    0    0    0    0 -0.00000000000E+00 -0.00000000000E+00 -0.10098890832E+01  0.10098890832E+01  0.00000000000E+00 0.  1.
          2    1    1    2  501    0 -0.16523770241E+01  0.39577295742E+01  0.87355325329E+01  0.97315727582E+01  0.25500000000E-02 0. -1.
         -2    1    1    2    0  501  0.16523770241E+01 -0.39577295742E+01  0.84718655264E+01  0.94956034675E+01  0.25500000000E-02 0.  1.
<mgrwt>
<rscale>  0 0.42888203E+01</rscale>
<asrwt>0</asrwt>
<pdfrwt beam="1">0</pdfrwt>
<pdfrwt beam="2">0</pdfrwt>
<totfact> 0.75237890E+11</totfact>
</mgrwt>
</event>
<event>
 4    1  0.3064748E+006  0.2325442E+01  0.7546771E-02  0.2790876E+00
         22   -1    0    0    0    0  0.00000000000E+00  0.00000000000E+00  0.68032129465E+00  0.68032129465E+00  0.00000000000E+00 0. -1.
         22   -1    0    0    0    0 -0.00000000000E+00 -0.00000000000E+00 -0.80400079926E+01  0.80400079926E+01  0.00000000000E+00 0.  1.
          2    1    1    2  501    0 -0.15838093864E+01 -0.17027102978E+01 -0.41444549351E+01  0.47522823719E+01  0.25500000000E-02 0.  1.
         -2    1    1    2    0  501  0.15838093864E+01  0.17027102978E+01 -0.32152317629E+01  0.39680469154E+01  0.25500000000E-02 0. -1.
<mgrwt>
<rscale>  0 0.23254421E+01</rscale>
<asrwt>0</asrwt>
<pdfrwt beam="1">0</pdfrwt>
<pdfrwt beam="2">0</pdfrwt>
<totfact> 0.32003502E+12</totfact>
</mgrwt>
</event>
<event>
 4    1  0.3064748E+006  0.4306609E+01  0.7546771E-02  0.2222256E+00
         22   -1    0    0    0    0  0.00000000000E+00  0.00000000000E+00  0.34793253705E+01  0.34793253705E+01  0.00000000000E+00 0.  1.
         22   -1    0    0    0    0 -0.00000000000E+00 -0.00000000000E+00 -0.53447757960E+01  0.53447757960E+01  0.00000000000E+00 0. -1.
          2    1    1    2  501    0 -0.26450330058E+01  0.33986281182E+01 -0.11599758241E+01  0.44600922751E+01  0.25500000000E-02 0. -1.
         -2    1    1    2    0  501  0.26450330058E+01 -0.33986281182E+01 -0.70547460143E+00  0.43640088913E+01  0.25500000000E-02 0.  1.
<mgrwt>
<rscale>  0 0.43066088E+01</rscale>
<asrwt>0</asrwt>
<pdfrwt beam="1">0</pdfrwt>
<pdfrwt beam="2">0</pdfrwt>
<totfact> 0.79506098E+11</totfact>
</mgrwt>
</event>
<event>
 4    1  0.3064748E+006  0.4079454E+01  0.7546771E-02  0.2262359E+00
         22   -1    0    0    0    0  0.00000000000E+00  0.00000000000E+00  0.44203028094E+00  0.44203028094E+00  0.00000000000E+00 0.  1.
         22   -1    0    0    0    0 -0.00000000000E+00 -0.00000000000E+00 -0.37894349152E+02  0.37894349152E+02  0.00000000000E+00 0. -1.
          2    1    1    2  501    0 -0.40471486046E+01 -0.51237351631E+00 -0.17183420498E+02  0.17661027291E+02  0.25500000000E-02 0.  1.
         -2    1    1    2    0  501  0.40471486046E+01  0.51237351631E+00 -0.20268898373E+02  0.20675352142E+02  0.25500000000E-02 0. -1.
<mgrwt>
<rscale>  0 0.40794540E+01</rscale>
<asrwt>0</asrwt>
<pdfrwt beam="1">0</pdfrwt>
<pdfrwt beam="2">0</pdfrwt>
<totfact> 0.76016205E+11</totfact>
</mgrwt>
</event>
<event>
 4    1  0.3064748E+006  0.2272571E+01  0.7546771E-02  0.2818165E+00
         22   -1    0    0    0    0  0.00000000000E+00  0.00000000000E+00  0.65748770556E+01  0.65748770556E+01  0.00000000000E+00 0.  1.
         22   -1    0    0    0    0 -0.00000000000E+00 -0.00000000000E+00 -0.19311694562E+01  0.19311694562E+01  0.00000000000E+00 0. -1.
          2    1    1    2  501    0 -0.22725647485E+01 -0.45677206420E-02  0.55976500974E+01  0.60413793554E+01  0.25500000000E-02 0.  1.
         -2    1    1    2    0  501  0.22725647485E+01  0.45677206420E-02 -0.95394249799E+00  0.24646671565E+01  0.25500000000E-02 0. -1.
<mgrwt>
<rscale>  0 0.22725708E+01</rscale>
<asrwt>0</asrwt>
<pdfrwt beam="1">0</pdfrwt>
<pdfrwt beam="2">0</pdfrwt>
<totfact> 0.12331206E+12</totfact>
</mgrwt>
</event>
<event>
 4    1  0.3064748E+006  0.2709668E+01  0.7546771E-02  0.2622739E+00
         22   -1    0    0    0    0  0.00000000000E+00  0.00000000000E+00  0.95440201663E+00  0.95440201663E+00  0.00000000000E+00 0. -1.
         22   -1    0    0    0    0 -0.00000000000E+00 -0.00000000000E+00 -0.11146636583E+03  0.11146636583E+03  0.00000000000E+00 0.  1.
          2    1    1    2  501    0  0.96983163682E+00  0.25301621355E+01 -0.10200140821E+01  0.28952942969E+01  0.25500000000E-02 0. -1.
         -2    1    1    2    0  501 -0.96983163682E+00 -0.25301621355E+01 -0.10949194973E+03  0.10952547355E+03  0.25500000000E-02 0.  1.
<mgrwt>
<rscale>  0 0.27096679E+01</rscale>
<asrwt>0</asrwt>
<pdfrwt beam="1">0</pdfrwt>
<pdfrwt beam="2">0</pdfrwt>
<totfact> 0.73879415E+10</totfact>
</mgrwt>
</event>
<event>
 4    1  0.3064748E+006  0.2258769E+01  0.7546771E-02  0.2825488E+00
         22   -1    0    0    0    0  0.00000000000E+00  0.00000000000E+00  0.15962892132E+02  0.15962892132E+02  0.00000000000E+00 0. -1.
         22   -1    0    0    0    0 -0.00000000000E+00 -0.00000000000E+00 -0.42558017265E+00  0.42558017265E+00  0.00000000000E+00 0.  1.
          2    1    1    2  501    0  0.59996160594E+00 -0.21776307947E+01  0.11857420498E+02  0.12070644439E+02  0.25500000000E-02 0.  1.
         -2    1    1    2    0  501 -0.59996160594E+00  0.21776307947E+01  0.36798914613E+01  0.43178278655E+01  0.25500000000E-02 0. -1.
<mgrwt>
<rscale>  0 0.22587688E+01</rscale>
<asrwt>0</asrwt>
<pdfrwt beam="1">0</pdfrwt>
<pdfrwt beam="2">0</pdfrwt>
<totfact> 0.23606304E+12</totfact>
</mgrwt>
</event>
<event>
 4    1  0.3064748E+006  0.3195539E+01  0.7546771E-02  0.2463780E+00
         22   -1    0    0    0    0  0.00000000000E+00  0.00000000000E+00  0.28150252473E+02  0.28150252473E+02  0.00000000000E+00 0. -1.
         22   -1    0    0    0    0 -0.00000000000E+00 -0.00000000000E+00 -0.55751958026E+00  0.55751958026E+00  0.00000000000E+00 0.  1.
          2    1    1    2  501    0  0.23907461008E+01  0.21203294125E+01  0.22280379652E+02  0.22508371502E+02  0.25500000000E-02 0. -1.
         -2    1    1    2    0  501 -0.23907461008E+01 -0.21203294125E+01  0.53123532404E+01  0.61994005508E+01  0.25500000000E-02 0.  1.
<mgrwt>
<rscale>  0 0.31955391E+01</rscale>
<asrwt>0</asrwt>
<pdfrwt beam="1">0</pdfrwt>
<pdfrwt beam="2">0</pdfrwt>
<totfact> 0.85596887E+11</totfact>
</mgrwt>
</event>
<event>
 4    1  0.3064748E+006  0.2000474E+01  0.7546771E-02  0.2980409E+00
         22   -1    0    0    0    0  0.00000000000E+00  0.00000000000E+00  0.12261471116E+01  0.12261471116E+01  0.00000000000E+00 0. -1.
         22   -1    0    0    0    0 -0.00000000000E+00 -0.00000000000E+00 -0.32715684287E+01  0.32715684287E+01  0.00000000000E+00 0.  1.
          2    1    1    2  501    0  0.12224612919E+01  0.15835022305E+01 -0.91311707311E+00  0.21990180117E+01  0.25500000000E-02 0. -1.
         -2    1    1    2    0  501 -0.12224612919E+01 -0.15835022305E+01 -0.11323042441E+01  0.22986975286E+01  0.25500000000E-02 0.  1.
<mgrwt>
<rscale>  0 0.20004743E+01</rscale>
<asrwt>0</asrwt>
<pdfrwt beam="1">0</pdfrwt>
<pdfrwt beam="2">0</pdfrwt>
<totfact> 0.47458997E+12</totfact>
</mgrwt>
</event>
<event>
 4    1  0.3064748E+006  0.2087568E+01  0.7546771E-02  0.2924024E+00
         22   -1    0    0    0    0  0.00000000000E+00  0.00000000000E+00  0.24052481799E+00  0.24052481799E+00  0.00000000000E+00 0. -1.
         22   -1    0    0    0    0 -0.00000000000E+00 -0.00000000000E+00 -0.18214181582E+02  0.18214181582E+02  0.00000000000E+00 0.  1.
          2    1    1    2  501    0  0.47070225478E+00  0.20338077369E+01 -0.83179288221E+01  0.85758895116E+01  0.25500000000E-02 0. -1.
         -2    1    1    2    0  501 -0.47070225478E+00 -0.20338077369E+01 -0.96557279419E+01  0.98788168884E+01  0.25500000000E-02 0.  1.
<mgrwt>
<rscale>  0 0.20875682E+01</rscale>
<asrwt>0</asrwt>
<pdfrwt beam="1">0</pdfrwt>
<pdfrwt beam="2">0</pdfrwt>
<totfact> 0.38037339E+12</totfact>
</mgrwt>
</event>
<event>
 4    1  0.3064748E+006  0.8142551E+01  0.7546771E-02  0.1868155E+00
         22   -1    0    0    0    0  0.00000000000E+00  0.00000000000E+00  0.16184283033E+02  0.16184283033E+02  0.00000000000E+00 0.  1.
         22   -1    0    0    0    0 -0.00000000000E+00 -0.00000000000E+00 -0.41238529029E+01  0.41238529029E+01  0.00000000000E+00 0. -1.
          2    1    1    2  501    0 -0.74134277154E+01  0.33678206337E+01  0.52053179281E+01  0.96641847844E+01  0.25500000000E-02 0. -1.
         -2    1    1    2    0  501  0.74134277154E+01 -0.33678206337E+01  0.68551122024E+01  0.10643951152E+02  0.25500000000E-02 0.  1.
<mgrwt>
<rscale>  0 0.81425508E+01</rscale>
<asrwt>0</asrwt>
<pdfrwt beam="1">0</pdfrwt>
<pdfrwt beam="2">0</pdfrwt>
<totfact> 0.17065400E+11</totfact>
</mgrwt>
</event>
<event>
 4    1  0.3064748E+006  0.2017593E+01  0.7546771E-02  0.2968950E+00
         22   -1    0    0    0    0  0.00000000000E+00  0.00000000000E+00  0.32571733756E+00  0.32571733756E+00  0.00000000000E+00 0. -1.
         22   -1    0    0    0    0 -0.00000000000E+00 -0.00000000000E+00 -0.13378692483E+02  0.13378692483E+02  0.00000000000E+00 0.  1.
          2    1    1    2  501    0 -0.18695894819E+01  0.75849325565E+00 -0.82849597428E+01  0.85270886762E+01  0.25500000000E-02 0.  1.
         -2    1    1    2    0  501  0.18695894819E+01 -0.75849325565E+00 -0.47680154032E+01  0.51773211449E+01  0.25500000000E-02 0. -1.
<mgrwt>
<rscale>  0 0.20175935E+01</rscale>
<asrwt>0</asrwt>
<pdfrwt beam="1">0</pdfrwt>
<pdfrwt beam="2">0</pdfrwt>
<totfact> 0.39617160E+12</totfact>
</mgrwt>
</event>
<event>
 4    1  0.3064748E+006  0.2260135E+01  0.7546771E-02  0.2824759E+00
         22   -1    0    0    0    0  0.00000000000E+00  0.00000000000E+00  0.49234296445E+02  0.49234296445E+02  0.00000000000E+00 0.  1.
         22   -1    0    0    0    0 -0.00000000000E+00 -0.00000000000E+00 -0.33209650733E+00  0.33209650733E+00  0.00000000000E+00 0. -1.
          2    1    1    2  501    0  0.22382468408E+01  0.31377341275E+00  0.45001460120E+02  0.45058180412E+02  0.25500000000E-02 0.  1.
         -2    1    1    2    0  501 -0.22382468408E+01 -0.31377341275E+00  0.39007398184E+01  0.45082125403E+01  0.25500000000E-02 0. -1.
<mgrwt>
<rscale>  0 0.22601348E+01</rscale>
<asrwt>0</asrwt>
<pdfrwt beam="1">0</pdfrwt>
<pdfrwt beam="2">0</pdfrwt>
<totfact> 0.74510860E+11</totfact>
</mgrwt>
</event>
<event>
 4    1  0.3064748E+006  0.2324155E+01  0.7546771E-02  0.2791526E+00
         22   -1    0    0    0    0  0.00000000000E+00  0.00000000000E+00  0.13743920982E+02  0.13743920982E+02  0.00000000000E+00 0. -1.
         22   -1    0    0    0    0 -0.00000000000E+00 -0.00000000000E+00 -0.18922186752E+01  0.18922186752E+01  0.00000000000E+00 0.  1.
          2    1    1    2  501    0  0.96225535494E+00  0.21155978700E+01  0.12884787136E+02  0.13092724535E+02  0.25500000000E-02 0. -1.
         -2    1    1    2    0  501 -0.96225535494E+00 -0.21155978700E+01 -0.10330848291E+01  0.25434151219E+01  0.25500000000E-02 0.  1.
<mgrwt>
<rscale>  0 0.23241549E+01</rscale>
<asrwt>0</asrwt>
<pdfrwt beam="1">0</pdfrwt>
<pdfrwt beam="2">0</pdfrwt>
<totfact> 0.51768432E+11</totfact>
</mgrwt>
</event>
<event>
 4    1  0.3064748E+006  0.2038978E+01  0.7546771E-02  0.2954901E+00
         22   -1    0    0    0    0  0.00000000000E+00  0.00000000000E+00  0.10896814522E+01  0.10896814522E+01  0.00000000000E+00 0. -1.
         22   -1    0    0    0    0 -0.00000000000E+00 -0.00000000000E+00 -0.57204221613E+01  0.57204221613E+01  0.00000000000E+00 0.  1.
          2    1    1    2  501    0  0.43497949009E+00  0.19920386904E+01 -0.35031757513E+00  0.20688533555E+01  0.25500000000E-02 0. -1.
         -2    1    1    2    0  501 -0.43497949009E+00 -0.19920386904E+01 -0.42804231339E+01  0.47412502580E+01  0.25500000000E-02 0.  1.
<mgrwt>
<rscale>  0 0.20389781E+01</rscale>
<asrwt>0</asrwt>
<pdfrwt beam="1">0</pdfrwt>
<pdfrwt beam="2">0</pdfrwt>
<totfact> 0.28105510E+12</totfact>
</mgrwt>
</event>
<event>
 4    1  0.3064748E+006  0.2317075E+01  0.7546771E-02  0.2795115E+00
         22   -1    0    0    0    0  0.00000000000E+00  0.00000000000E+00  0.19442565770E+00  0.19442565770E+00  0.00000000000E+00 0.  1.
         22   -1    0    0    0    0 -0.00000000000E+00 -0.00000000000E+00 -0.31606853074E+02  0.31606853074E+02  0.00000000000E+00 0. -1.
          2    1    1    2  501    0  0.22895803894E+01 -0.35588478825E+00 -0.10054575279E+02  0.10318106555E+02  0.25500000000E-02 0.  1.
         -2    1    1    2    0  501 -0.22895803894E+01  0.35588478825E+00 -0.21357852138E+02  0.21483172177E+02  0.25500000000E-02 0. -1.
<mgrwt>
<rscale>  0 0.23170755E+01</rscale>
<asrwt>0</asrwt>
<pdfrwt beam="1">0</pdfrwt>
<pdfrwt beam="2">0</pdfrwt>
<totfact> 0.24101198E+12</totfact>
</mgrwt>
</event>
<event>
 4    1  0.3064748E+006  0.2031109E+01  0.7546771E-02  0.2960038E+00
         22   -1    0    0    0    0  0.00000000000E+00  0.00000000000E+00  0.84429750387E+01  0.84429750387E+01  0.00000000000E+00 0.  1.
         22   -1    0    0    0    0 -0.00000000000E+00 -0.00000000000E+00 -0.49623704069E+00  0.49623704069E+00  0.00000000000E+00 0. -1.
          2    1    1    2  501    0  0.14855945241E+01 -0.13850647551E+01  0.45271435206E+01  0.49618978652E+01  0.25500000000E-02 0. -1.
         -2    1    1    2    0  501 -0.14855945241E+01  0.13850647551E+01  0.34195944774E+01  0.39773142142E+01  0.25500000000E-02 0.  1.
<mgrwt>
<rscale>  0 0.20311086E+01</rscale>
<asrwt>0</asrwt>
<pdfrwt beam="1">0</pdfrwt>
<pdfrwt beam="2">0</pdfrwt>
<totfact> 0.43123437E+12</totfact>
</mgrwt>
</event>
<event>
 4    1  0.3064748E+006  0.2430301E+01  0.7546771E-02  0.2740079E+00
         22   -1    0    0    0    0  0.00000000000E+00  0.00000000000E+00  0.28938031443E+00  0.28938031443E+00  0.00000000000E+00 0. -1.
         22   -1    0    0    0    0 -0.00000000000E+00 -0.00000000000E+00 -0.25891678275E+02  0.25891678275E+02  0.00000000000E+00 0.  1.
          2    1    1    2  501    0 -0.10134631011E+01 -0.22089016835E+01 -0.67780633250E+01  0.72005904650E+01  0.25500000000E-02 0. -1.
         -2    1    1    2    0  501  0.10134631011E+01  0.22089016835E+01 -0.18824234636E+02  0.18980468124E+02  0.25500000000E-02 0.  1.
<mgrwt>
<rscale>  0 0.24303005E+01</rscale>
<asrwt>0</asrwt>
<pdfrwt beam="1">0</pdfrwt>
<pdfrwt beam="2">0</pdfrwt>
<totfact> 0.19909373E+12</totfact>
</mgrwt>
</event>
<event>
 4    1  0.3064748E+006  0.2352448E+01  0.7546771E-02  0.2777386E+00
         22   -1    0    0    0    0  0.00000000000E+00  0.00000000000E+00  0.41287813244E+00  0.41287813244E+00  0.00000000000E+00 0.  1.
         22   -1    0    0    0    0 -0.00000000000E+00 -0.00000000000E+00 -0.14358779630E+02  0.14358779630E+02  0.00000000000E+00 0. -1.
          2    1    1    2  501    0  0.22184545884E+01  0.78260147609E+00 -0.50679042613E+01  0.55872771486E+01  0.25500000000E-02 0. -1.
         -2    1    1    2    0  501 -0.22184545884E+01 -0.78260147609E+00 -0.88779972366E+01  0.91843806142E+01  0.25500000000E-02 0.  1.
<mgrwt>
<rscale>  0 0.23524482E+01</rscale>
<asrwt>0</asrwt>
<pdfrwt beam="1">0</pdfrwt>
<pdfrwt beam="2">0</pdfrwt>
<totfact> 0.27827920E+12</totfact>
</mgrwt>
</event>
<event>
 4    1  0.3064748E+006  0.3299706E+01  0.7546771E-02  0.2435190E+00
         22   -1    0    0    0    0  0.00000000000E+00  0.00000000000E+00  0.10824253180E+02  0.10824253180E+02  0.00000000000E+00 0.  1.
         22   -1    0    0    0    0 -0.00000000000E+00 -0.00000000000E+00 -0.22297920630E+01  0.22297920630E+01  0.00000000000E+00 0. -1.
          2    1    1    2  501    0 -0.31577679777E+01 -0.95736747674E+00  0.91328872049E+01  0.97106995776E+01  0.25500000000E-02 0.  1.
         -2    1    1    2    0  501  0.31577679777E+01  0.95736747674E+00 -0.53842608756E+00  0.33433456657E+01  0.25500000000E-02 0. -1.
<mgrwt>
<rscale>  0 0.32997057E+01</rscale>
<asrwt>0</asrwt>
<pdfrwt beam="1">0</pdfrwt>
<pdfrwt beam="2">0</pdfrwt>
<totfact> 0.57288365E+11</totfact>
</mgrwt>
</event>
<event>
 4    1  0.3064748E+006  0.2023967E+01  0.7546771E-02  0.2964733E+00
         22   -1    0    0    0    0  0.00000000000E+00  0.00000000000E+00  0.31273984161E+02  0.31273984161E+02  0.00000000000E+00 0.  1.
         22   -1    0    0    0    0 -0.00000000000E+00 -0.00000000000E+00 -0.24637009742E+00  0.24637009742E+00  0.00000000000E+00 0. -1.
          2    1    1    2  501    0 -0.78404641530E-01 -0.20224463150E+01  0.26299318608E+02  0.26377084792E+02  0.25500000000E-02 0.  1.
         -2    1    1    2    0  501  0.78404641530E-01  0.20224463150E+01  0.47282954560E+01  0.51432694666E+01  0.25500000000E-02 0. -1.
<mgrwt>
<rscale>  0 0.20239671E+01</rscale>
<asrwt>0</asrwt>
<pdfrwt beam="1">0</pdfrwt>
<pdfrwt beam="2">0</pdfrwt>
<totfact> 0.18751516E+12</totfact>
</mgrwt>
</event>
<event>
 4    1  0.3064748E+006  0.2310945E+01  0.7546771E-02  0.2798240E+00
         22   -1    0    0    0    0  0.00000000000E+00  0.00000000000E+00  0.37286366575E+01  0.37286366575E+01  0.00000000000E+00 0. -1.
         22   -1    0    0    0    0 -0.00000000000E+00 -0.00000000000E+00 -0.14347627088E+01  0.14347627088E+01  0.00000000000E+00 0.  1.
          2    1    1    2  501    0 -0.23109152882E+01  0.11433695456E-01  0.12542436335E+01  0.26293713685E+01  0.25500000000E-02 0. -1.
         -2    1    1    2    0  501  0.23109152882E+01 -0.11433695456E-01  0.10396303152E+01  0.25340279978E+01  0.25500000000E-02 0.  1.
<mgrwt>
<rscale>  0 0.23109450E+01</rscale>
<asrwt>0</asrwt>
<pdfrwt beam="1">0</pdfrwt>
<pdfrwt beam="2">0</pdfrwt>
<totfact> 0.33995623E+12</totfact>
</mgrwt>
</event>
<event>
 4    1  0.3064748E+006  0.2370216E+01  0.7546771E-02  0.2768668E+00
         22   -1    0    0    0    0  0.00000000000E+00  0.00000000000E+00  0.58960282306E+00  0.58960282306E+00  0.00000000000E+00 0. -1.
         22   -1    0    0    0    0 -0.00000000000E+00 -0.00000000000E+00 -0.95325163866E+01  0.95325163866E+01  0.00000000000E+00 0.  1.
          2    1    1    2  501    0 -0.30269963226E+00 -0.23508065758E+01 -0.43652850017E+01  0.49672566143E+01  0.25500000000E-02 0. -1.
         -2    1    1    2    0  501  0.30269963226E+00  0.23508065758E+01 -0.45776285619E+01  0.51548625954E+01  0.25500000000E-02 0.  1.
<mgrwt>
<rscale>  0 0.23702163E+01</rscale>
<asrwt>0</asrwt>
<pdfrwt beam="1">0</pdfrwt>
<pdfrwt beam="2">0</pdfrwt>
<totfact> 0.30656140E+12</totfact>
</mgrwt>
</event>
<event>
 4    1  0.3064748E+006  0.4728952E+01  0.7546771E-02  0.2156818E+00
         22   -1    0    0    0    0  0.00000000000E+00  0.00000000000E+00  0.51886775783E+02  0.51886775783E+02  0.00000000000E+00 0. -1.
         22   -1    0    0    0    0 -0.00000000000E+00 -0.00000000000E+00 -0.93665688630E+00  0.93665688630E+00  0.00000000000E+00 0.  1.
          2    1    1    2  501    0 -0.17060472585E+01  0.44104861067E+01  0.44881060525E+02  0.45129509030E+02  0.25500000000E-02 0. -1.
         -2    1    1    2    0  501  0.17060472585E+01 -0.44104861067E+01  0.60690583721E+01  0.76939236396E+01  0.25500000000E-02 0.  1.
<mgrwt>
<rscale>  0 0.47289525E+01</rscale>
<asrwt>0</asrwt>
<pdfrwt beam="1">0</pdfrwt>
<pdfrwt beam="2">0</pdfrwt>
<totfact> 0.21514460E+11</totfact>
</mgrwt>
</event>
<event>
 4    1  0.3064748E+006  0.2209506E+01  0.7546771E-02  0.2852339E+00
         22   -1    0    0    0    0  0.00000000000E+00  0.00000000000E+00  0.62280339766E+00  0.62280339766E+00  0.00000000000E+00 0.  1.
         22   -1    0    0    0    0 -0.00000000000E+00 -0.00000000000E+00 -0.98695617140E+01  0.98695617140E+01  0.00000000000E+00 0. -1.
          2    1    1    2  501    0 -0.15730667386E+00  0.22038978497E+01 -0.22435627168E+01  0.31488873096E+01  0.25500000000E-02 0.  1.
         -2    1    1    2    0  501  0.15730667386E+00 -0.22038978497E+01 -0.70031955996E+01  0.73434778021E+01  0.25500000000E-02 0. -1.
<mgrwt>
<rscale>  0 0.22095062E+01</rscale>
<asrwt>0</asrwt>
<pdfrwt beam="1">0</pdfrwt>
<pdfrwt beam="2">0</pdfrwt>
<totfact> 0.27625449E+12</totfact>
</mgrwt>
</event>
<event>
 4    1  0.3064748E+006  0.4572378E+01  0.7546771E-02  0.2179636E+00
         22   -1    0    0    0    0  0.00000000000E+00  0.00000000000E+00  0.58928010566E+02  0.58928010566E+02  0.00000000000E+00 0.  1.
         22   -1    0    0    0    0 -0.00000000000E+00 -0.00000000000E+00 -0.36007783398E+00  0.36007783398E+00  0.00000000000E+00 0. -1.
          2    1    1    2  501    0 -0.45698433715E+01  0.15219283244E+00  0.32878797512E+02  0.33195209947E+02  0.25500000000E-02 0. -1.
         -2    1    1    2    0  501  0.45698433715E+01 -0.15219283244E+00  0.25689135220E+02  0.26092878453E+02  0.25500000000E-02 0.  1.
<mgrwt>
<rscale>  0 0.45723777E+01</rscale>
<asrwt>0</asrwt>
<pdfrwt beam="1">0</pdfrwt>
<pdfrwt beam="2">0</pdfrwt>
<totfact> 0.53608449E+11</totfact>
</mgrwt>
</event>
<event>
 4    1  0.3064748E+006  0.2306455E+01  0.7546771E-02  0.2800539E+00
         22   -1    0    0    0    0  0.00000000000E+00  0.00000000000E+00  0.25403797675E+01  0.25403797675E+01  0.00000000000E+00 0.  1.
         22   -1    0    0    0    0 -0.00000000000E+00 -0.00000000000E+00 -0.11929697493E+02  0.11929697493E+02  0.00000000000E+00 0. -1.
          2    1    1    2  501    0 -0.82073955656E+00 -0.21554846451E+01  0.18747632326E+01  0.29722838283E+01  0.25500000000E-02 0.  1.
         -2    1    1    2    0  501  0.82073955656E+00  0.21554846451E+01 -0.11264080958E+02  0.11497793432E+02  0.25500000000E-02 0. -1.
<mgrwt>
<rscale>  0 0.23064549E+01</rscale>
<asrwt>0</asrwt>
<pdfrwt beam="1">0</pdfrwt>
<pdfrwt beam="2">0</pdfrwt>
<totfact> 0.43737715E+11</totfact>
</mgrwt>
</event>
<event>
 4    1  0.3064748E+006  0.5013815E+01  0.7546771E-02  0.2121358E+00
         22   -1    0    0    0    0  0.00000000000E+00  0.00000000000E+00  0.98133601665E+01  0.98133601665E+01  0.00000000000E+00 0.  1.
         22   -1    0    0    0    0 -0.00000000000E+00 -0.00000000000E+00 -0.30706002334E+01  0.30706002334E+01  0.00000000000E+00 0. -1.
          2    1    1    2  501    0 -0.34385413059E+01 -0.36489403226E+01  0.59940752201E+01  0.78145553960E+01  0.25500000000E-02 0.  1.
         -2    1    1    2    0  501  0.34385413059E+01  0.36489403226E+01  0.74868471304E+00  0.50694050038E+01  0.25500000000E-02 0. -1.
<mgrwt>
<rscale>  0 0.50138147E+01</rscale>
<asrwt>0</asrwt>
<pdfrwt beam="1">0</pdfrwt>
<pdfrwt beam="2">0</pdfrwt>
<totfact> 0.44450445E+11</totfact>
</mgrwt>
</event>
<event>
 4    1  0.3064748E+006  0.2518856E+01  0.7546771E-02  0.2700275E+00
         22   -1    0    0    0    0  0.00000000000E+00  0.00000000000E+00  0.26838352780E+02  0.26838352780E+02  0.00000000000E+00 0.  1.
         22   -1    0    0    0    0 -0.00000000000E+00 -0.00000000000E+00 -0.27486683974E+00  0.27486683974E+00  0.00000000000E+00 0. -1.
          2    1    1    2  501    0  0.40630250728E+00 -0.24858694973E+01  0.82104008092E+01  0.85880915712E+01  0.25500000000E-02 0. -1.
         -2    1    1    2    0  501 -0.40630250728E+00  0.24858694973E+01  0.18353085131E+02  0.18525128049E+02  0.25500000000E-02 0.  1.
<mgrwt>
<rscale>  0 0.25188560E+01</rscale>
<asrwt>0</asrwt>
<pdfrwt beam="1">0</pdfrwt>
<pdfrwt beam="2">0</pdfrwt>
<totfact> 0.20154328E+12</totfact>
</mgrwt>
</event>
<event>
 4    1  0.3064748E+006  0.2757363E+01  0.7546771E-02  0.2604903E+00
         22   -1    0    0    0    0  0.00000000000E+00  0.00000000000E+00  0.66158969946E+00  0.66158969946E+00  0.00000000000E+00 0.  1.
         22   -1    0    0    0    0 -0.00000000000E+00 -0.00000000000E+00 -0.43990515839E+02  0.43990515839E+02  0.00000000000E+00 0. -1.
          2    1    1    2  501    0 -0.26112118514E+01  0.88578520974E+00 -0.24749668666E+01  0.37052004351E+01  0.25500000000E-02 0.  1.
         -2    1    1    2    0  501  0.26112118514E+01 -0.88578520974E+00 -0.40853959272E+02  0.40946905103E+02  0.25500000000E-02 0. -1.
<mgrwt>
<rscale>  0 0.27573627E+01</rscale>
<asrwt>0</asrwt>
<pdfrwt beam="1">0</pdfrwt>
<pdfrwt beam="2">0</pdfrwt>
<totfact> 0.39690791E+11</totfact>
</mgrwt>
</event>
<event>
 4    1  0.3064748E+006  0.2851298E+01  0.7546771E-02  0.2571368E+00
         22   -1    0    0    0    0  0.00000000000E+00  0.00000000000E+00  0.20550584938E+02  0.20550584938E+02  0.00000000000E+00 0.  1.
         22   -1    0    0    0    0 -0.00000000000E+00 -0.00000000000E+00 -0.55110606813E+00  0.55110606813E+00  0.00000000000E+00 0. -1.
          2    1    1    2  501    0  0.11805510198E+01 -0.25954171627E+01  0.15604247388E+02  0.15862611198E+02  0.25500000000E-02 0.  1.
         -2    1    1    2    0  501 -0.11805510198E+01  0.25954171627E+01  0.43952314823E+01  0.52390798089E+01  0.25500000000E-02 0. -1.
<mgrwt>
<rscale>  0 0.28512975E+01</rscale>
<asrwt>0</asrwt>
<pdfrwt beam="1">0</pdfrwt>
<pdfrwt beam="2">0</pdfrwt>
<totfact> 0.12887706E+12</totfact>
</mgrwt>
</event>
<event>
 4    1  0.3064748E+006  0.2684158E+01  0.7546771E-02  0.2632517E+00
         22   -1    0    0    0    0  0.00000000000E+00  0.00000000000E+00  0.38050597010E+00  0.38050597010E+00  0.00000000000E+00 0.  1.
         22   -1    0    0    0    0 -0.00000000000E+00 -0.00000000000E+00 -0.19216452666E+02  0.19216452666E+02  0.00000000000E+00 0. -1.
          2    1    1    2  501    0  0.34875815412E+00  0.26614034075E+01 -0.82311757628E+01  0.86577688400E+01  0.25500000000E-02 0. -1.
         -2    1    1    2    0  501 -0.34875815412E+00 -0.26614034075E+01 -0.10604770933E+02  0.10939189796E+02  0.25500000000E-02 0.  1.
<mgrwt>
<rscale>  0 0.26841585E+01</rscale>
<asrwt>0</asrwt>
<pdfrwt beam="1">0</pdfrwt>
<pdfrwt beam="2">0</pdfrwt>
<totfact> 0.21278815E+12</totfact>
</mgrwt>
</event>
<event>
 4    1  0.3064748E+006  0.2820911E+01  0.7546771E-02  0.2581994E+00
         22   -1    0    0    0    0  0.00000000000E+00  0.00000000000E+00  0.12761902720E+01  0.12761902720E+01  0.00000000000E+00 0. -1.
         22   -1    0    0    0    0 -0.00000000000E+00 -0.00000000000E+00 -0.10917982238E+02  0.10917982238E+02  0.00000000000E+00 0.  1.
          2    1    1    2  501    0  0.27237306921E+01  0.73404550817E+00 -0.82793992460E+00  0.29399018202E+01  0.25500000000E-02 0. -1.
         -2    1    1    2    0  501 -0.27237306921E+01 -0.73404550817E+00 -0.88138520418E+01  0.92542706902E+01  0.25500000000E-02 0.  1.
<mgrwt>
<rscale>  0 0.28209109E+01</rscale>
<asrwt>0</asrwt>
<pdfrwt beam="1">0</pdfrwt>
<pdfrwt beam="2">0</pdfrwt>
<totfact> 0.10790653E+12</totfact>
</mgrwt>
</event>
<event>
 4    1  0.3064748E+006  0.3516832E+01  0.7546771E-02  0.2380413E+00
         22   -1    0    0    0    0  0.00000000000E+00  0.00000000000E+00  0.74182402373E+00  0.74182402373E+00  0.00000000000E+00 0. -1.
         22   -1    0    0    0    0 -0.00000000000E+00 -0.00000000000E+00 -0.17265203973E+02  0.17265203973E+02  0.00000000000E+00 0.  1.
          2    1    1    2  501    0  0.31267546340E+01  0.16098158390E+01 -0.65935907834E+01  0.74728540397E+01  0.25500000000E-02 0. -1.
         -2    1    1    2    0  501 -0.31267546340E+01 -0.16098158390E+01 -0.99297891660E+01  0.10534173957E+02  0.25500000000E-02 0.  1.
<mgrwt>
<rscale>  0 0.35168321E+01</rscale>
<asrwt>0</asrwt>
<pdfrwt beam="1">0</pdfrwt>
<pdfrwt beam="2">0</pdfrwt>
<totfact> 0.11427504E+12</totfact>
</mgrwt>
</event>
<event>
 4    1  0.3064748E+006  0.2391742E+01  0.7546771E-02  0.2758271E+00
         22   -1    0    0    0    0  0.00000000000E+00  0.00000000000E+00  0.14438170185E+02  0.14438170185E+02  0.00000000000E+00 0. -1.
         22   -1    0    0    0    0 -0.00000000000E+00 -0.00000000000E+00 -0.55029850411E+00  0.55029850411E+00  0.00000000000E+00 0.  1.
          2    1    1    2  501    0  0.16262162930E+01 -0.17538079860E+01  0.10909681337E+02  0.11168776803E+02  0.25500000000E-02 0. -1.
         -2    1    1    2    0  501 -0.16262162930E+01  0.17538079860E+01  0.29781903441E+01  0.38196918870E+01  0.25500000000E-02 0.  1.
<mgrwt>
<rscale>  0 0.23917417E+01</rscale>
<asrwt>0</asrwt>
<pdfrwt beam="1">0</pdfrwt>
<pdfrwt beam="2">0</pdfrwt>
<totfact> 0.19986450E+12</totfact>
</mgrwt>
</event>
<event>
 4    1  0.3064748E+006  0.2419073E+01  0.7546771E-02  0.2745320E+00
         22   -1    0    0    0    0  0.00000000000E+00  0.00000000000E+00  0.51314376731E+00  0.51314376731E+00  0.00000000000E+00 0. -1.
         22   -1    0    0    0    0 -0.00000000000E+00 -0.00000000000E+00 -0.40444796485E+02  0.40444796485E+02  0.00000000000E+00 0.  1.
          2    1    1    2  501    0  0.22178105953E+01  0.96603612307E+00 -0.26125817591E+01  0.35605476514E+01  0.25500000000E-02 0. -1.
         -2    1    1    2    0  501 -0.22178105953E+01 -0.96603612307E+00 -0.37319070959E+02  0.37397392601E+02  0.25500000000E-02 0.  1.
<mgrwt>
<rscale>  0 0.24190734E+01</rscale>
<asrwt>0</asrwt>
<pdfrwt beam="1">0</pdfrwt>
<pdfrwt beam="2">0</pdfrwt>
<totfact> 0.59036237E+11</totfact>
</mgrwt>
</event>
<event>
 4    1  0.3064748E+006  0.2033883E+01  0.7546771E-02  0.2958222E+00
         22   -1    0    0    0    0  0.00000000000E+00  0.00000000000E+00  0.67616689852E-01  0.67616689852E-01  0.00000000000E+00 0.  1.
         22   -1    0    0    0    0 -0.00000000000E+00 -0.00000000000E+00 -0.67806192357E+02  0.67806192357E+02  0.00000000000E+00 0. -1.
          2    1    1    2  501    0  0.18531090322E+01 -0.83824959032E+00 -0.23259138930E+02  0.23347895531E+02  0.25500000000E-02 0.  1.
         -2    1    1    2    0  501 -0.18531090322E+01  0.83824959032E+00 -0.44479436738E+02  0.44525913516E+02  0.25500000000E-02 0. -1.
<mgrwt>
<rscale>  0 0.20338835E+01</rscale>
<asrwt>0</asrwt>
<pdfrwt beam="1">0</pdfrwt>
<pdfrwt beam="2">0</pdfrwt>
<totfact> 0.28536395E+12</totfact>
</mgrwt>
</event>
